1 : ch3cl_q0m1_uhf_631g_star.inp
----- GAMESS execution script 'rungms' -----
This job is running on host Macbooks-MacBook-Pro.local
under operating system Darwin at Mon Oct 20 19:56:10 +07 2025
Available scratch disk space (Kbyte units) at beginning of the job is
Filesystem   1024-blocks      Used Available Capacity iused      ifree %iused  Mounted on
/dev/disk3s5   482797652 122176220 339916992    27% 1896421 3399169920    0%   /System/Volumes/Data
GAMESS temporary binary files will be written to /Users/macbookpro/local/gamess/scr
GAMESS supplementary output files will be written to /Users/macbookpro/local/gamess/scr
Copying input file /Users/macbookpro/sq2_data/ch3cl_q0m1_uhf_631g_star.inp to your run's scratch directory...
          *******************************************************
          *                                                     *
          *          GAMESS VERSION = 30 JUN 2023 (R1)          *
          *                                                     *
          *              doi.org/10.1063/5.0005188              *
          *                                                     *
          **************** 64 BIT LINUX VERSION *****************

  GAMESS HAS BEEN MADE POSSIBLE WITH IMPORTANT CONTRIBUTIONS FROM
  THE FOLLOWING INDIVIDUALS (IN ALPHABETICAL ORDER):

     IVANA ADAMOVIC, CHRISTINE AIKENS, TOMOKO AKAMA,
     MELISA ALKAN, YURI ALEXEEV, YURIKO AOKI, POOJA ARORA,
     TOSHIO ASADA, ANDREY ASADCHEV, KIM K. BALDRIDGE,
     PRADIPTA BANDYOPADHYAY, TAYLOR A. BARNES, MARIA BARYSZ,
     ROB BELL, JONATHAN BENTZ, COLLEEN BERTONI,
     JERRY A. BOATZ, BRETT BODE, KURT BRORSEN, KURT R. BRORSEN,
     LAIMUTIS BYTAUTAS, CALEB CARLIN, LAURA CARRINGTON,
     GALINA CHABAN, BENOIT CHAMPAGNE, WEI CHEN, MAHITO CHIBA,
     DAN CHIPMAN, CHEOL HO CHOI, TANNER CULPITT,
     DIPAYAN DATTA, PAUL DAY, ALBERT DEFUSCO,
     NUWAN DESILVA, J. EMILIANO DEUSTUA,
     TIM DUDLEY, MICHEL DUPUIS, STEVEN T. ELBERT,
     DMITRI FEDOROV, KATHERINE FERRERAS, MICHAEL FILATOV,
     ALEX FINDLATER,GRAHAM FLETCHER, MARK FREITAG,
     CHRISTIAN FRIEDL, DAVID GARMER, 
     IGOR S. GERASIMOV, KURT GLAESEMANN,
     MARK S. GORDON, JEFFREY R. GOUR, FENG LONG GU,
     EMILIE B. GUIDEZ, ANASTASIA GUNINA, SHARON HAMMES-SCHIFFER,
     MASATAKE HARUTA, KIMIHIKO HIRAO, YASUHIRO IKABATA,
     TZVETELIN IORDANOV, STEPHAN IRLE, KAZUYA ISHIMURA,
     JOE IVANIC, FRANK JENSEN, JAN H. JENSEN, VISVALDAS KAIRYS,
     MUNEAKI KAMIYA, MICHIO KATOUDA, NAOAKI KAWAKAMI, DAN KEMP,
     BERNARD KIRTMAN, KAZUO KITAURA, MARIUSZ KLOBUKOWSKI,
     MASATO KOBAYASHI, KONSTANTIN KOMAROV, PRAKASHAN KORAMBATH,
     JACEK KORCHOWIEC, SHIRO KOSEKI, KAROL KOWALSKI,
     JIMMY KROMANN, STANISLAW A. KUCHARSKI, HENRY KURTZ,
     SAROM SOK LEANG, SEUNGHOON LEE, HUI LI, SHUHUA LI, WEI LI,
     JESSE J. LUTZ, ALEKSANDR O. LYKHIN,
     ILIAS MAGOULAS, MARCIN MAKOWSKI,
     JOANI MATO, NIKITA MATSUNAGA, BENEDETTA MENNUCCI,
     GRANT MERRILL, NORIYUKI MINEZAWA, VLADIMIR MIRONOV,
     EISAKU MIYOSHI, JOHN A. MONTGOMERY JR., HIROTOSHI MORI,
     JONATHAN MULLIN, MONIKA MUSIAL, SHIGERU NAGASE,
     TAKESHI NAGATA, HIROMI NAKAI, TAKAHITO NAKAJIMA,
     YUYA NAKAJIMA, HARUYUKI NAKANO, HIROYA NAKATA, SEAN NEDD,
     HEATHER NETZLOFF, KIET A. NGUYEN, YOSHIO NISHIMOTO,
     BOSILJKA NJEGIC, RYAN OLSON, MIKE PAK, ROBERTO PEVERATI,
     BUU PHAM, PIOTR PIECUCH, ANNA POMOGAEVA, DAVID POOLE,
     SPENCER PRUITT, OLIVIER QUINET, LUKE ROSKOP,
     KLAUS RUEDENBERG, ANDREW SAND, TOSAPORN SATTASATHUCHANA,
     NOZOMI SAWADA, MICHAEL W. SCHMIDT, PATRICK E. SCHNEIDER,
     JUNJI SEINO, PRACHI SHARMA, JUN SHEN, JIM SHOEMAKER,
     YINAN SHU, DEJUN SI, JONATHAN SKONE, LYUDMILA SLIPCHENKO,
     TONY SMITH, JIE SONG, MARK SPACKMAN, CASPER STEINMANN,
     WALT STEVENS, PEIFENG SU, SHUJUN SU, CHET SWALINA,
     CHINAMI TAKASHIMA, TETSUYA TAKETSUGU, ZHEN TAO,
     NANDUN THELLAMUREGE, SEIKEN TOKURA, JACOPO TOMASI,
     TSUGUKI TOUMA, TAKAO TSUNEDA, HIROAKI UMEDA,
     JORGE LUIS GALVEZ VALLEJO, YALI WANG, SIMON WEBB,
     AARON WEST, THERESA L. WINDUS, MARTA WLOCH,
     PENG XU, KIYOSHI YAGI, SUSUMU YANAGISAWA, YANG YANG,
     SOOHAENG YOO, TAKESHI YOSHIKAWA, FEDERICO ZAHARIEV,
     TOBY ZENG

  WHO ARE SUPPORTED BY THEIR INSTITUTION/UNIVERSITY/COMPANY/GROUP
  (IN ALPHABETICAL ORDER):

     EP ANALYTICS,
     FACULTES UNIVERSITAIRES NOTRE-DAME DE LA PAIX,
     INSTITUTE FOR MOLECULAR SCIENCE, IOWA STATE UNIVERSITY,
     JACKSON STATE UNIVERSITY, JOHANNES KEPLER UNIVERSITY LINZ,
     KYUNGPOOK NATIONAL UNIVERSITY
     KYUSHU UNIVERSITY, MICHIGAN STATE UNIVERSITY,
     MIE UNIVERSITY, THE MOLECULAR SCIENCES SOFTWARE INSTITUTE,
     MOSCOW STATE UNIVERSITY,
     N. COPERNICUS UNIVERSITY, NAGOYA UNIVERSITY,
     NANJING UNIVERSITY, NAT. INST. OF ADVANCED INDUSTRIAL
     SCIENCE AND TECHNOLOGY, NATIONAL INST. OF STANDARDS AND
     TECHNOLOGY, NESMEYANOV INSTITUTE OF ORGANOELEMENT COMPOUNDS
     OF RUSSIAN ACADEMY OF SCIENCES, OSAKA PREFECTURE UNIVERSITY,
     PENNSYLVANIA STATE UNIVERSITY, TOKYO INSTITUTE OF TECHNOLOGY,
     UNIVERSITY OF AARHUS, UNIVERSITY OF ALBERTA,
     UNIVERSITY OF CALIFORNIA AT SANTA BARBARA,
     UNIVERSITY OF COPENHAGEN, UNIVERSITY OF IOWA,
     UNIVERSITY OF MEMPHIS, UNIVERSITY OF MINNESOTA,
     UNIVERSITY OF NEBRASKA, UNIVERSITY OF NEW ENGLAND,
     UNIVERSITY OF NOTRE DAME, UNIVERSITY OF PISA,
     UNIVERSITY OF SILESIA, UNIVERSITY OF TOKYO,
     UNIVERSITY OF ZURICH, WASEDA UNIVERSITY,
     YALE UNIVERSITY

  GAMESS SOFTWARE MANAGEMENT TEAM FOR THIS RELEASE:
     MARK S. GORDON (TEAM LEAD),
     BRETT BODE (SENIOR ADVISOR),
     GIUSEPPE BARCA,
     COLLEEN BERTONI,
     KRISTOPHER KEIPERT (ADVISOR),
     SAROM S. LEANG (DEVELOPMENT LEAD),
     BUU PHAM,
     JACKSON HAYES (WEBSITE ADMINISTRATOR),
     PENG XU

 EXECUTION OF GAMESS BEGUN 19:56:10 20-OCT-2025    

            ECHO OF THE FIRST FEW INPUT CARDS -
 INPUT CARD> $CONTRL SCFTYP=UHF ICHARG=0 MULT=1                                             
 INPUT CARD> RUNTYP=OPTIMIZE                                                                
 INPUT CARD> $END                                                                           
 INPUT CARD> $BASIS GBASIS=N31 NGAUSS=6 NDFUNC=1 $END                                       
 INPUT CARD> $DATA                                                                          
 INPUT CARD> ... this is comment ...                                                        
 INPUT CARD> C1                                                                             
 INPUT CARD> C     6   0.00000001   0.00000019  -1.12634264                                 
 INPUT CARD> CL   17   0.00000001  -0.00000012   0.65235806                                 
 INPUT CARD> H     1  -0.00000002   1.02984568  -1.47892526                                 
 INPUT CARD> H     1   0.89187231  -0.51492289  -1.47892506                                 
 INPUT CARD> H     1  -0.89187231  -0.51492286  -1.47892509                                 
 INPUT CARD> $END                                                                           
 INPUT CARD>                                                                                
      1000000 WORDS OF MEMORY AVAILABLE

     BASIS OPTIONS
     -------------
     GBASIS=N31          IGAUSS=       6      POLAR=POPN31  
     NDFUNC=       1     NFFUNC=       0     DIFFSP=       F
     NPFUNC=       0      DIFFS=       F     BASNAM=        


     RUN TITLE
     ---------
  ... this is comment ...                                                        

 THE POINT GROUP OF THE MOLECULE IS C1      
 THE ORDER OF THE PRINCIPAL AXIS IS     0

 ATOM      ATOMIC                      COORDINATES (BOHR)
           CHARGE         X                   Y                   Z
 C           6.0     0.0000000189        0.0000003590       -2.1284789579
 CL         17.0     0.0000000189       -0.0000002268        1.2327779793
 H           1.0    -0.0000000378        1.9461261448       -2.7947634977
 H           1.0     1.6853942819       -0.9730631669       -2.7947631198
 H           1.0    -1.6853942819       -0.9730631102       -2.7947631765

          INTERNUCLEAR DISTANCES (ANGS.)
          ------------------------------

                1 C          2 CL         3 H          4 H          5 H     

   1 C       0.0000000    1.7787007 *  1.0885294 *  1.0885294 *  1.0885295 *
   2 CL      1.7787007 *  0.0000000    2.3670553 *  2.3670550 *  2.3670550 *
   3 H       1.0885294 *  2.3670553 *  0.0000000    1.7837450 *  1.7837449 *
   4 H       1.0885294 *  2.3670550 *  1.7837450 *  0.0000000    1.7837446 *
   5 H       1.0885295 *  2.3670550 *  1.7837449 *  1.7837446 *  0.0000000  

  * ... LESS THAN  3.000


     ATOMIC BASIS SET
     ----------------
 THE CONTRACTED PRIMITIVE FUNCTIONS HAVE BEEN UNNORMALIZED
 THE CONTRACTED BASIS FUNCTIONS ARE NOW NORMALIZED TO UNITY

  SHELL TYPE  PRIMITIVE        EXPONENT          CONTRACTION COEFFICIENT(S)

 C         

      1   S       1          3047.5248800    0.001834737132
      1   S       2           457.3695180    0.014037322813
      1   S       3           103.9486850    0.068842622264
      1   S       4            29.2101553    0.232184443216
      1   S       5             9.2866630    0.467941348435
      1   S       6             3.1639270    0.362311985337

      2   L       7             7.8682723   -0.119332419775    0.068999066591
      2   L       8             1.8812885   -0.160854151696    0.316423960957
      2   L       9             0.5442493    1.143456437840    0.744308290898

      3   L      10             0.1687145    1.000000000000    1.000000000000

      4   D      11             0.8000000    1.000000000000

 CL        

      5   S      12         25180.1000000    0.001832959848
      5   S      13          3780.3500000    0.014034198835
      5   S      14           860.4740000    0.069097394263
      5   S      15           242.1450000    0.237451980285
      5   S      16            77.3349000    0.483033959896
      5   S      17            26.2470000    0.339855971783

      6   L      18           491.7650000   -0.002297391417    0.003989400879
      6   L      19           116.9840000   -0.030713718938    0.030317706682
      6   L      20            37.4153000   -0.112528069386    0.129880028625
      6   L      21            13.7834000    0.045016327757    0.327951072278
      6   L      22             5.4521500    0.589353363399    0.453527099954
      6   L      23             2.2258800    0.465206286849    0.252154055573

      7   L      24             3.1864900   -0.251831288046   -0.014299314719
      7   L      25             1.1442700    0.061589315012    0.323572333073
      7   L      26             0.4203770    1.060185422549    0.743507765337

      8   L      27             0.1426570    1.000000000000    1.000000000000

      9   D      28             0.7500000    1.000000000000

 H         

     10   S      29            18.7311370    0.033494604338
     10   S      30             2.8253944    0.234726953484
     10   S      31             0.6401217    0.813757326146

     11   S      32             0.1612778    1.000000000000

 H         

     12   S      33            18.7311370    0.033494604338
     12   S      34             2.8253944    0.234726953484
     12   S      35             0.6401217    0.813757326146

     13   S      36             0.1612778    1.000000000000

 H         

     14   S      37            18.7311370    0.033494604338
     14   S      38             2.8253944    0.234726953484
     14   S      39             0.6401217    0.813757326146

     15   S      40             0.1612778    1.000000000000

 TOTAL NUMBER OF BASIS SET SHELLS             =   15
 NUMBER OF CARTESIAN GAUSSIAN BASIS FUNCTIONS =   40
 NUMBER OF ELECTRONS                          =   26
 CHARGE OF MOLECULE                           =    0
 SPIN MULTIPLICITY                            =    1
 NUMBER OF OCCUPIED ORBITALS (ALPHA)          =   13
 NUMBER OF OCCUPIED ORBITALS (BETA )          =   13
 TOTAL NUMBER OF ATOMS                        =    5
 THE NUCLEAR REPULSION ENERGY IS       51.3878284525

     $CONTRL OPTIONS
     ---------------
 SCFTYP=UHF          RUNTYP=OPTIMIZE     EXETYP=RUN     
 MPLEVL=       0     CITYP =NONE         CCTYP =NONE         VBTYP =NONE    
 DFTTYP=NONE         TDDFT =NONE    
 MULT  =       1     ICHARG=       0     NZVAR =       0     COORD =UNIQUE  
 PP    =NONE         RELWFN=NONE         LOCAL =NONE         NUMGRD=       F
 ISPHER=      -1     NOSYM =       0     MAXIT =      30     UNITS =ANGS    
 PLTORB=       F     MOLPLT=       F     AIMPAC=       F     FRIEND=        
 NPRINT=       7     IREST =       0     GEOM  =INPUT   
 NORMF =       0     NORMP =       0     ITOL  =      20     ICUT  =       9
 INTTYP=BEST         GRDTYP=BEST         QMTTOL= 1.0E-06

     $SYSTEM OPTIONS
     ---------------
  REPLICATED MEMORY=     1000000 WORDS (ON EVERY NODE).
 DISTRIBUTED MEMDDI=           0 MILLION WORDS IN AGGREGATE,
 MEMDDI DISTRIBUTED OVER   1 PROCESSORS IS           0 WORDS/PROCESSOR.
 TOTAL MEMORY REQUESTED ON EACH PROCESSOR=     1000000 WORDS.
 TIMLIM=      525600.00 MINUTES, OR     365.0 DAYS.
 PARALL= F  BALTYP=  DLB     KDIAG=    0  COREFL= F
 MXSEQ2=     300 MXSEQ3=     150  mem10=         0  mem22=         0

          ----------------
          PROPERTIES INPUT
          ----------------

     MOMENTS            FIELD           POTENTIAL          DENSITY
 IEMOM =       1   IEFLD =       0   IEPOT =       0   IEDEN =       0
 WHERE =COMASS     WHERE =NUCLEI     WHERE =NUCLEI     WHERE =NUCLEI  
 OUTPUT=BOTH       OUTPUT=BOTH       OUTPUT=BOTH       OUTPUT=BOTH    
 IEMINT=       0   IEFINT=       0                     IEDINT=       0
                                                       MORB  =       0
          EXTRAPOLATION IN EFFECT
          SOSCF IN EFFECT
          DIIS or SOSCF will be reset if energy rises
 ORBITAL PRINTING OPTION: NPREO=     1    40     2     1

     -------------------------------
     INTEGRAL TRANSFORMATION OPTIONS
     -------------------------------
     NWORD  =            0
     CUTTRF = 1.0E-09     MPTRAN =       0
     DIRTRF =       F     AOINTS =DUP     

          ----------------------
          INTEGRAL INPUT OPTIONS
          ----------------------
 NOPK  =       1 NORDER=       0 SCHWRZ=       F

     ------------------------------------------
     THE POINT GROUP IS C1 , NAXIS= 0, ORDER= 1
     ------------------------------------------

     DIMENSIONS OF THE SYMMETRY SUBSPACES ARE
 A   =   40

 ..... DONE SETTING UP THE RUN .....
 STEP CPU TIME =     0.00 TOTAL CPU TIME =          0.0 (      0.0 MIN)
 TOTAL WALL CLOCK TIME=          0.0 SECONDS, CPU UTILIZATION IS    97.53%


          -----------------------------
          STATIONARY POINT LOCATION RUN
          -----------------------------

 OBTAINING INITIAL HESSIAN, HESS=GUESS   
 CARTESIAN COORDINATE OPTIMIZATION USING BADGER'S RULE FORCE CONSTANT GUESS

          PARAMETERS CONTROLLING GEOMETRY SEARCH ARE
          METHOD =QA                  UPHESS =BFGS    
          NNEG   =         0          NFRZ   =         0
          NSTEP  =        50          IFOLOW =         1
          HESS   =GUESS               RESTAR =         F
          IHREP  =         0          HSSEND =         F
          NPRT   =         0          NPUN   =         0
          OPTTOL = 1.000E-04          RMIN   = 1.500E-03
          RMAX   = 1.000E-01          RLIM   = 7.000E-02
          DXMAX  = 3.000E-01          PURIFY =         F
          MOVIE  =         F          TRUPD  =         T
          TRMAX  = 5.000E-01          TRMIN  = 5.000E-02
          ITBMAT =         5          STPT   =         F
          STSTEP = 1.000E-02          PROJCT=          T

 BEGINNING GEOMETRY SEARCH POINT NSERCH=   0 ...

 COORDINATES OF ALL ATOMS ARE (ANGS)
   ATOM   CHARGE       X              Y              Z
 ------------------------------------------------------------
 C           6.0   0.0000000100   0.0000001900  -1.1263426400
 CL         17.0   0.0000000100  -0.0000001200   0.6523580600
 H           1.0  -0.0000000200   1.0298456800  -1.4789252600
 H           1.0   0.8918723100  -0.5149228900  -1.4789250600
 H           1.0  -0.8918723100  -0.5149228600  -1.4789250900

          ********************
          1 ELECTRON INTEGRALS
          ********************
 ...... END OF ONE-ELECTRON INTEGRALS ......
 STEP CPU TIME =     0.00 TOTAL CPU TIME =          0.0 (      0.0 MIN)
 TOTAL WALL CLOCK TIME=          0.0 SECONDS, CPU UTILIZATION IS    97.85%

          -------------
          GUESS OPTIONS
          -------------
          GUESS =HUCKEL            NORB  =       0          NORDER=       0
          MIX   =       F          PRTMO =       F          PUNMO =       F
          TOLZ  = 1.0E-08          TOLE  = 1.0E-05
          SYMDEN=       F          PURIFY=       F

 INITIAL GUESS ORBITALS GENERATED BY HUCKEL   ROUTINE.
 HUCKEL GUESS REQUIRES     16676 WORDS.

 SYMMETRIES FOR INITIAL GUESS ORBITALS FOLLOW.  ALPHA SET(S).
    13 ORBITALS ARE OCCUPIED (    6 CORE ORBITALS).
     7=A        8=A        9=A       10=A       11=A       12=A       13=A   
    14=A       15=A       16=A       17=A       18=A       19=A       20=A   
    21=A       22=A       23=A   

 SYMMETRIES FOR INITIAL GUESS ORBITALS FOLLOW.   BETA SET(S).
    13 ORBITALS ARE OCCUPIED (    6 CORE ORBITALS).
     7=A        8=A        9=A       10=A       11=A       12=A       13=A   
    14=A       15=A       16=A       17=A       18=A       19=A       20=A   
    21=A       22=A       23=A   
 ...... END OF INITIAL ORBITAL SELECTION ......
 STEP CPU TIME =     0.00 TOTAL CPU TIME =          0.0 (      0.0 MIN)
 TOTAL WALL CLOCK TIME=          0.0 SECONDS, CPU UTILIZATION IS    98.23%

                    ----------------------
                    AO INTEGRAL TECHNOLOGY
                    ----------------------
     S,P,L SHELL ROTATED AXIS INTEGRALS, REPROGRAMMED BY
        KAZUYA ISHIMURA (IMS) AND JOSE SIERRA (SYNSTAR).
     S,P,D,L SHELL ROTATED AXIS INTEGRALS PROGRAMMED BY
        KAZUYA ISHIMURA (INSTITUTE FOR MOLECULAR SCIENCE).
     S,P,D,F,G SHELL TO TOTAL QUARTET ANGULAR MOMENTUM SUM 5,
        ERIC PROGRAM BY GRAHAM FLETCHER (ELORET AND NASA ADVANCED
        SUPERCOMPUTING DIVISION, AMES RESEARCH CENTER).
     S,P,D,F,G,L SHELL GENERAL RYS QUADRATURE PROGRAMMED BY
        MICHEL DUPUIS (PACIFIC NORTHWEST NATIONAL LABORATORY).

          --------------------
          2 ELECTRON INTEGRALS
          --------------------

 THE -PK- OPTION IS OFF, THE INTEGRALS ARE NOT IN SUPERMATRIX FORM.
 STORING   15000 INTEGRALS/RECORD ON DISK, USING 12 BYTES/INTEGRAL.
 TWO ELECTRON INTEGRAL EVALUATION REQUIRES   90516 WORDS OF MEMORY.
 II,JST,KST,LST =  1  1  1  1 NREC =         1 INTLOC =    1
 II,JST,KST,LST =  2  1  1  1 NREC =         1 INTLOC =    2
 II,JST,KST,LST =  3  1  1  1 NREC =         1 INTLOC =   34
 II,JST,KST,LST =  4  1  1  1 NREC =         1 INTLOC =  214
 II,JST,KST,LST =  5  1  1  1 NREC =         1 INTLOC = 1189
 II,JST,KST,LST =  6  1  1  1 NREC =         1 INTLOC = 1800
 II,JST,KST,LST =  7  1  1  1 NREC =         1 INTLOC = 5759
 II,JST,KST,LST =  8  1  1  1 NREC =         1 INTLOC =14294
 II,JST,KST,LST =  9  1  1  1 NREC =         2 INTLOC =13489
 II,JST,KST,LST = 10  1  1  1 NREC =         5 INTLOC =   66
 II,JST,KST,LST = 11  1  1  1 NREC =         5 INTLOC =12233
 II,JST,KST,LST = 12  1  1  1 NREC =         6 INTLOC =10763
 II,JST,KST,LST = 13  1  1  1 NREC =         8 INTLOC = 5292
 II,JST,KST,LST = 14  1  1  1 NREC =        10 INTLOC = 2476
 II,JST,KST,LST = 15  1  1  1 NREC =        12 INTLOC = 1040
 TOTAL NUMBER OF NONZERO TWO-ELECTRON INTEGRALS =              197540
         14 INTEGRAL RECORDS WERE STORED ON DISK FILE  8.
  ...... END OF TWO-ELECTRON INTEGRALS .....
 STEP CPU TIME =     0.01 TOTAL CPU TIME =          0.0 (      0.0 MIN)
 TOTAL WALL CLOCK TIME=          0.0 SECONDS, CPU UTILIZATION IS    99.09%

          ---------------------------
                  UHF SCF CALCULATION
          ---------------------------

     NUCLEAR ENERGY =        51.3878284525
     MAXIT = 30     NPUNCH=  2     MULT=  1
     EXTRAP=T  DAMP=F  SHIFT=F  RSTRCT=F  DIIS=F  SOSCF=T
     DENSITY MATRIX CONV=  1.00E-05
     SOSCF WILL OPTIMIZE     351 ALPHA AND     351 BETA ROTATION ANGLES.
     SOGTOL= 2.500E-01
     MEMORY REQUIRED FOR UHF/ROHF ITERS=     51554 WORDS.

 ITER EX      TOTAL ENERGY        E CHANGE  DENSITY CHANGE    ORB. GRAD 
   1  0     -498.7669151414  -498.7669151414   0.188641657   0.000000000
          ---------------START SECOND ORDER SCF---------------
   2  1     -499.0747985392    -0.3078833978   0.079503597   0.032229984
   3  2     -499.0895860850    -0.0147875458   0.026238423   0.018372811
   4  3     -499.0927994623    -0.0032133773   0.006930329   0.003371855
   5  4     -499.0928942767    -0.0000948144   0.002311580   0.000523385
   6  5     -499.0928993283    -0.0000050516   0.000670458   0.000247289
   7  6     -499.0928997223    -0.0000003941   0.000136058   0.000038744
   8  7     -499.0928997542    -0.0000000319   0.000043519   0.000009144
   9  8     -499.0928997556    -0.0000000014   0.000011440   0.000002638
  10  9     -499.0928997557    -0.0000000001   0.000001641   0.000000392
  11 10     -499.0928997557    -0.0000000000   0.000000199   0.000000069

          -----------------
          DENSITY CONVERGED
          -----------------
     TIME TO FORM FOCK OPERATORS=       0.0 SECONDS (       0.0 SEC/ITER)
     TIME TO SOLVE SCF EQUATIONS=       0.0 SECONDS (       0.0 SEC/ITER)

 FINAL UHF ENERGY IS     -499.0928997557 AFTER  11 ITERATIONS

          --------------------
          SPIN SZ   =    0.000
          S-SQUARED =   -0.000
          --------------------

  ----- ALPHA SET ----- 

          ------------
          EIGENVECTORS
          ------------

                      1          2          3          4          5
                 -104.8124   -11.2923   -10.5463    -8.0158    -8.0124
                     A          A          A          A          A   
    1  C  1  S   -0.000005   0.995778  -0.000221   0.000021  -0.000000
    2  C  1  S    0.000044   0.028019   0.000452  -0.001172   0.000000
    3  C  1  X   -0.000000  -0.000000  -0.000000  -0.000000   0.000022
    4  C  1  Y    0.000000   0.000000  -0.000000   0.000000  -0.000024
    5  C  1  Z    0.000072   0.000745  -0.000237   0.000628   0.000000
    6  C  1  S    0.000104  -0.013614   0.000273   0.001661  -0.000000
    7  C  1  X   -0.000000   0.000000  -0.000000  -0.000000  -0.000004
    8  C  1  Y   -0.000000  -0.000000   0.000000  -0.000000   0.000005
    9  C  1  Z   -0.000100  -0.000898   0.000885   0.000227  -0.000000
   10  C  1 XX   -0.000010  -0.001721  -0.000003  -0.000164   0.000010
   11  C  1 YY   -0.000010  -0.001721  -0.000003  -0.000164  -0.000010
   12  C  1 ZZ   -0.000035  -0.002164  -0.000646   0.001323  -0.000000
   13  C  1 XY   -0.000000  -0.000000  -0.000000  -0.000000  -0.000011
   14  C  1 XZ   -0.000000  -0.000000  -0.000000  -0.000000   0.000134
   15  C  1 YZ   -0.000000  -0.000000  -0.000000  -0.000000  -0.000146
   16  CL 2  S    0.996117  -0.000034  -0.286736  -0.001514  -0.000000
   17  CL 2  S    0.014647   0.000071   1.030578   0.005656   0.000000
   18  CL 2  X   -0.000000  -0.000000  -0.000000  -0.000000  -0.671611
   19  CL 2  Y    0.000000  -0.000000   0.000000  -0.000001   0.732224
   20  CL 2  Z   -0.000056   0.000032  -0.004590   0.992813   0.000001
   21  CL 2  S   -0.017735   0.000298   0.026180  -0.002648  -0.000000
   22  CL 2  X   -0.000000  -0.000000  -0.000000  -0.000000  -0.013709
   23  CL 2  Y   -0.000000   0.000000   0.000000  -0.000000   0.014946
   24  CL 2  Z    0.000044  -0.000330  -0.001117   0.022821   0.000000
   25  CL 2  S    0.001502   0.002570  -0.006788   0.000117   0.000000
   26  CL 2  X   -0.000000  -0.000000  -0.000000   0.000000   0.003096
   27  CL 2  Y    0.000000  -0.000000  -0.000000   0.000000  -0.003376
   28  CL 2  Z   -0.000080  -0.001571   0.001307  -0.005291  -0.000000
   29  CL 2 XX    0.006266  -0.000164  -0.001759   0.001009   0.000003
   30  CL 2 YY    0.006266  -0.000164  -0.001759   0.001009  -0.000003
   31  CL 2 ZZ    0.006274  -0.000234  -0.001326  -0.000286   0.000000
   32  CL 2 XY   -0.000000  -0.000000  -0.000000  -0.000000  -0.000003
   33  CL 2 XZ   -0.000000   0.000000  -0.000000  -0.000000   0.000231
   34  CL 2 YZ   -0.000000  -0.000000  -0.000000   0.000000  -0.000252
   35  H  3  S   -0.000014   0.000121  -0.000098  -0.000077  -0.000051
   36  H  3  S   -0.000089   0.002324   0.000587  -0.000808   0.000413
   37  H  4  S   -0.000014   0.000121  -0.000098  -0.000077   0.000066
   38  H  4  S   -0.000089   0.002324   0.000587  -0.000808  -0.000534
   39  H  5  S   -0.000014   0.000121  -0.000098  -0.000077  -0.000015
   40  H  5  S   -0.000089   0.002324   0.000587  -0.000808   0.000121

                      6          7          8          9         10
                   -8.0124    -1.1302    -0.9159    -0.6191    -0.6191
                     A          A          A          A          A   
    1  C  1  S   -0.000000  -0.109154   0.159969  -0.000000  -0.000000
    2  C  1  S    0.000000   0.201150  -0.305230   0.000000   0.000000
    3  C  1  X   -0.000024  -0.000000   0.000000  -0.032129   0.429450
    4  C  1  Y   -0.000022  -0.000000   0.000000   0.429450   0.032129
    5  C  1  Z    0.000000   0.074019   0.110865  -0.000000   0.000000
    6  C  1  S   -0.000000   0.195588  -0.345578  -0.000000   0.000000
    7  C  1  X    0.000005  -0.000000  -0.000000  -0.017104   0.228622
    8  C  1  Y    0.000004  -0.000000   0.000000   0.228622   0.017104
    9  C  1  Z   -0.000000   0.020473   0.026866  -0.000000   0.000000
   10  C  1 XX    0.000009   0.001554  -0.015286  -0.024879  -0.001861
   11  C  1 YY   -0.000009   0.001554  -0.015286   0.024879   0.001861
   12  C  1 ZZ   -0.000000   0.018146   0.009491   0.000000  -0.000000
   13  C  1 XY    0.000012  -0.000000   0.000000   0.002149  -0.028728
   14  C  1 XZ   -0.000146   0.000000  -0.000000   0.000884  -0.011820
   15  C  1 YZ   -0.000134  -0.000000   0.000000  -0.011820  -0.000884
   16  CL 2  S   -0.000000   0.066839   0.044266   0.000000  -0.000000
   17  CL 2  S    0.000000  -0.304925  -0.203387  -0.000000   0.000000
   18  CL 2  X    0.732224   0.000000  -0.000000   0.006493  -0.086793
   19  CL 2  Y    0.671611  -0.000000   0.000000  -0.086793  -0.006493
   20  CL 2  Z    0.000001   0.043277  -0.044804  -0.000000   0.000000
   21  CL 2  S   -0.000000   0.590541   0.409388   0.000000  -0.000000
   22  CL 2  X    0.014946  -0.000000   0.000000  -0.016446   0.219825
   23  CL 2  Y    0.013709   0.000000  -0.000000   0.219824   0.016446
   24  CL 2  Z    0.000000  -0.100301   0.107723   0.000000  -0.000000
   25  CL 2  S    0.000000   0.235473   0.244140   0.000000  -0.000000
   26  CL 2  X   -0.003376  -0.000000   0.000000  -0.006302   0.084234
   27  CL 2  Y   -0.003096  -0.000000  -0.000000   0.084234   0.006302
   28  CL 2  Z   -0.000000  -0.007604   0.006775   0.000000   0.000000
   29  CL 2 XX    0.000003  -0.006705   0.005624  -0.000833  -0.000062
   30  CL 2 YY   -0.000003  -0.006705   0.005624   0.000833   0.000062
   31  CL 2 ZZ    0.000000   0.033168  -0.017053  -0.000000   0.000000
   32  CL 2 XY    0.000003   0.000000   0.000000   0.000072  -0.000962
   33  CL 2 XZ   -0.000252   0.000000  -0.000000   0.001673  -0.022369
   34  CL 2 YZ   -0.000231  -0.000000   0.000000  -0.022369  -0.001673
   35  H  3  S   -0.000047   0.056695  -0.134135   0.249161   0.018641
   36  H  3  S    0.000379   0.002117  -0.042091   0.166955   0.012491
   37  H  4  S   -0.000021   0.056695  -0.134135  -0.140724   0.206459
   38  H  4  S    0.000168   0.002117  -0.042091  -0.094294   0.138342
   39  H  5  S    0.000068   0.056695  -0.134135  -0.108437  -0.225100
   40  H  5  S   -0.000547   0.002117  -0.042091  -0.072660  -0.150832

                     11         12         13         14         15
                   -0.5479    -0.4347    -0.4347     0.1953     0.2577
                     A          A          A          A          A   
    1  C  1  S    0.003761   0.000000  -0.000000  -0.142299  -0.074784
    2  C  1  S    0.007428  -0.000000  -0.000000   0.145419   0.023697
    3  C  1  X    0.000000  -0.006387  -0.156913  -0.000000  -0.000000
    4  C  1  Y   -0.000000  -0.156913   0.006387   0.000000  -0.000000
    5  C  1  Z   -0.347049  -0.000000   0.000000   0.243030  -0.312906
    6  C  1  S   -0.081228   0.000000   0.000000   2.017738   1.704037
    7  C  1  X    0.000000  -0.002818  -0.069233  -0.000000  -0.000000
    8  C  1  Y   -0.000000  -0.069232   0.002818  -0.000000  -0.000001
    9  C  1  Z   -0.213680  -0.000000  -0.000000   0.666986  -1.072644
   10  C  1 XX    0.015043   0.010955  -0.000446  -0.004176  -0.017538
   11  C  1 YY    0.015043  -0.010955   0.000446  -0.004176  -0.017538
   12  C  1 ZZ   -0.037180   0.000000  -0.000000  -0.011526   0.011212
   13  C  1 XY   -0.000000   0.000515   0.012650   0.000000   0.000000
   14  C  1 XZ    0.000000   0.000994   0.024418  -0.000000  -0.000000
   15  C  1 YZ    0.000000   0.024418  -0.000994   0.000000  -0.000000
   16  CL 2  S    0.014858   0.000000  -0.000000  -0.016518   0.021218
   17  CL 2  S   -0.072045  -0.000000  -0.000000   0.094842  -0.075724
   18  CL 2  X   -0.000000  -0.010839  -0.266265  -0.000000  -0.000000
   19  CL 2  Y    0.000000  -0.266265   0.010839   0.000000  -0.000000
   20  CL 2  Z   -0.222618  -0.000000   0.000000  -0.124515   0.072396
   21  CL 2  S    0.147161   0.000000  -0.000000  -0.124040   0.282108
   22  CL 2  X    0.000000   0.028150   0.691545   0.000000   0.000000
   23  CL 2  Y   -0.000000   0.691545  -0.028150  -0.000000   0.000000
   24  CL 2  Z    0.566041   0.000000  -0.000000   0.317176  -0.194584
   25  CL 2  S    0.205527   0.000000   0.000000  -0.822185   0.248805
   26  CL 2  X    0.000000   0.016766   0.411876  -0.000000   0.000000
   27  CL 2  Y   -0.000000   0.411876  -0.016766  -0.000000   0.000000
   28  CL 2  Z    0.185800   0.000000  -0.000000   1.015789  -0.490493
   29  CL 2 XX    0.019134   0.001123  -0.000046  -0.039288   0.029898
   30  CL 2 YY    0.019134  -0.001123   0.000046  -0.039288   0.029899
   31  CL 2 ZZ   -0.066498  -0.000000  -0.000000   0.103927  -0.019149
   32  CL 2 XY    0.000000   0.000053   0.001297   0.000000   0.000000
   33  CL 2 XZ   -0.000000  -0.000171  -0.004199  -0.000000  -0.000000
   34  CL 2 YZ    0.000000  -0.004199   0.000171  -0.000000   0.000000
   35  H  3  S    0.075217  -0.122085   0.004970  -0.002027  -0.016600
   36  H  3  S    0.067663  -0.140044   0.005701  -0.532392  -1.072415
   37  H  4  S    0.075217   0.056739  -0.108214  -0.002027  -0.016600
   38  H  4  S    0.067664   0.065085  -0.124132  -0.532391  -1.072416
   39  H  5  S    0.075217   0.065346   0.103244  -0.002027  -0.016600
   40  H  5  S    0.067664   0.074959   0.118432  -0.532391  -1.072416

                     16         17         18         19         20
                    0.2899     0.2899     0.5875     0.6256     0.6521
                     A          A          A          A          A   
    1  C  1  S    0.000000   0.000000  -0.007810   0.020137  -0.000000
    2  C  1  S   -0.000000  -0.000000  -0.014511  -0.189421  -0.000000
    3  C  1  X   -0.309601  -0.073887   0.000000  -0.000000  -0.080335
    4  C  1  Y    0.073887  -0.309601  -0.000000   0.000000  -0.105384
    5  C  1  Z    0.000000   0.000000  -0.250483   0.273411   0.000000
    6  C  1  S   -0.000000  -0.000000   0.087161   0.596945   0.000000
    7  C  1  X   -1.469649  -0.350734   0.000000   0.000000   0.141174
    8  C  1  Y    0.350734  -1.469649   0.000000  -0.000000   0.185194
    9  C  1  Z   -0.000000   0.000001  -0.300899  -0.257864  -0.000000
   10  C  1 XX    0.002969  -0.012439   0.004458  -0.059859   0.022696
   11  C  1 YY   -0.002969   0.012439   0.004458  -0.059859  -0.022696
   12  C  1 ZZ   -0.000000  -0.000000  -0.047622   0.143251   0.000000
   13  C  1 XY   -0.014364  -0.003428   0.000000   0.000000   0.019978
   14  C  1 XZ   -0.011302  -0.002697  -0.000000   0.000000   0.006650
   15  C  1 YZ    0.002697  -0.011302   0.000000  -0.000000   0.008724
   16  CL 2  S   -0.000000  -0.000000  -0.063077   0.008302   0.000000
   17  CL 2  S    0.000000   0.000000   0.055689   0.024306   0.000000
   18  CL 2  X   -0.005748  -0.001372  -0.000000   0.000000   0.177862
   19  CL 2  Y    0.001372  -0.005748   0.000000  -0.000000   0.233321
   20  CL 2  Z   -0.000000  -0.000000   0.107116   0.239838   0.000000
   21  CL 2  S   -0.000000  -0.000000  -1.312913   0.237655   0.000000
   22  CL 2  X    0.002757   0.000658   0.000000  -0.000000  -0.691856
   23  CL 2  Y   -0.000658   0.002757  -0.000000   0.000001  -0.907585
   24  CL 2  Z    0.000000   0.000000  -0.359420  -0.987415  -0.000000
   25  CL 2  S    0.000000  -0.000001   2.008495  -0.525560  -0.000000
   26  CL 2  X    0.245217   0.058521  -0.000000   0.000000   0.710108
   27  CL 2  Y   -0.058521   0.245217   0.000000  -0.000001   0.931529
   28  CL 2  Z   -0.000000   0.000001  -0.055739   1.358698   0.000000
   29  CL 2 XX    0.004672  -0.019576  -0.060797  -0.054180   0.005067
   30  CL 2 YY   -0.004672   0.019576  -0.060797  -0.054180  -0.005067
   31  CL 2 ZZ   -0.000000   0.000000  -0.275476   0.253176   0.000000
   32  CL 2 XY   -0.022605  -0.005395   0.000000  -0.000000   0.004460
   33  CL 2 XZ    0.058434   0.013945  -0.000000   0.000000  -0.000252
   34  CL 2 YZ   -0.013945   0.058434   0.000000  -0.000000  -0.000331
   35  H  3  S   -0.017521   0.073415  -0.026164  -0.103690  -0.132927
   36  H  3  S   -0.436484   1.828960  -0.253581   0.140347  -0.099505
   37  H  4  S    0.072340  -0.021534  -0.026164  -0.103690  -0.021292
   38  H  4  S    1.802167  -0.536473  -0.253582   0.140347  -0.015938
   39  H  5  S   -0.054819  -0.051881  -0.026164  -0.103690   0.154219
   40  H  5  S   -1.365683  -1.292485  -0.253582   0.140347   0.115444

                     21         22         23         24         25
                    0.6521     0.7277     0.7277     0.7862     1.1041
                     A          A          A          A          A   
    1  C  1  S   -0.000000   0.000000  -0.000000   0.032092  -0.000000
    2  C  1  S    0.000000  -0.000000  -0.000000  -0.164673   0.000000
    3  C  1  X   -0.105384  -0.700759  -0.044299  -0.000000  -0.838089
    4  C  1  Y    0.080335   0.044299  -0.700759  -0.000001  -0.009280
    5  C  1  Z   -0.000000  -0.000000   0.000001  -0.831768  -0.000000
    6  C  1  S   -0.000000   0.000000   0.000000   0.330283  -0.000000
    7  C  1  X    0.185194   1.428236   0.090287   0.000000   1.338988
    8  C  1  Y   -0.141174  -0.090287   1.428237   0.000001   0.014826
    9  C  1  Z    0.000000   0.000000  -0.000002   1.932343   0.000000
   10  C  1 XX   -0.017301  -0.004868   0.077010   0.011012  -0.000856
   11  C  1 YY    0.017301   0.004868  -0.077010   0.011012   0.000856
   12  C  1 ZZ   -0.000000  -0.000000   0.000000  -0.036371   0.000000
   13  C  1 XY    0.026207   0.088923   0.005621  -0.000000  -0.089248
   14  C  1 XZ    0.008724   0.069240   0.004377   0.000000  -0.173838
   15  C  1 YZ   -0.006650  -0.004377   0.069240   0.000000  -0.001925
   16  CL 2  S   -0.000000  -0.000000  -0.000000   0.025139  -0.000000
   17  CL 2  S   -0.000000   0.000000   0.000000  -0.015810   0.000000
   18  CL 2  X    0.233321  -0.061188  -0.003868  -0.000000   0.000989
   19  CL 2  Y   -0.177862   0.003868  -0.061188   0.000000   0.000011
   20  CL 2  Z   -0.000000  -0.000000  -0.000000   0.151354  -0.000000
   21  CL 2  S   -0.000000   0.000000  -0.000000   0.567397  -0.000000
   22  CL 2  X   -0.907585   0.269567   0.017041   0.000000  -0.018593
   23  CL 2  Y    0.691856  -0.017041   0.269567  -0.000000  -0.000206
   24  CL 2  Z    0.000000   0.000000   0.000000  -0.520240  -0.000000
   25  CL 2  S    0.000000  -0.000000   0.000001  -1.774773   0.000000
   26  CL 2  X    0.931529  -0.659928  -0.041718  -0.000000  -0.090807
   27  CL 2  Y   -0.710108   0.041718  -0.659928  -0.000000  -0.001005
   28  CL 2  Z   -0.000001   0.000000  -0.000001   1.361791  -0.000000
   29  CL 2 XX   -0.003862  -0.000905   0.014310   0.096804   0.003743
   30  CL 2 YY    0.003862   0.000905  -0.014311   0.096804  -0.003743
   31  CL 2 ZZ   -0.000000  -0.000000   0.000000  -0.107033   0.000000
   32  CL 2 XY    0.005851   0.016524   0.001045  -0.000000   0.390367
   33  CL 2 XZ   -0.000330  -0.244024  -0.015426  -0.000000   0.348056
   34  CL 2 YZ    0.000252   0.015426  -0.244024  -0.000000   0.003854
   35  H  3  S    0.101331   0.029207  -0.462022   0.234106   0.006784
   36  H  3  S    0.075853   0.006276  -0.099275   0.325705  -0.015386
   37  H  4  S   -0.165784  -0.414726   0.205717   0.234106   0.527190
   38  H  4  S   -0.124101  -0.089112   0.044203   0.325706  -1.195742
   39  H  5  S    0.064453   0.385519   0.256305   0.234106  -0.533974
   40  H  5  S    0.048247   0.082836   0.055072   0.325706   1.211128

                     26         27         28         29         30
                    1.1041     1.1650     1.1732     1.1732     1.2135
                     A          A          A          A          A   
    1  C  1  S   -0.000000   0.035775   0.000000   0.000000  -0.000000
    2  C  1  S   -0.000000  -0.876520  -0.000000  -0.000001  -0.000000
    3  C  1  X   -0.009280   0.000000   0.248972  -0.302520   0.149337
    4  C  1  Y    0.838089   0.000000  -0.302521  -0.248972   0.003439
    5  C  1  Z    0.000000   0.655491   0.000000   0.000001   0.000000
    6  C  1  S    0.000001   1.923531   0.000000   0.000002   0.000001
    7  C  1  X    0.014826  -0.000001  -0.438354   0.532634   0.347337
    8  C  1  Y   -1.338989  -0.000001   0.532635   0.438355   0.008000
    9  C  1  Z    0.000000  -0.755319  -0.000000  -0.000001  -0.000000
   10  C  1 XX    0.077291   0.023711  -0.060623  -0.049892   0.004104
   11  C  1 YY   -0.077291   0.023711   0.060623   0.049892  -0.004104
   12  C  1 ZZ   -0.000000  -0.219418  -0.000000  -0.000000  -0.000000
   13  C  1 XY   -0.000988   0.000000   0.057611  -0.070001   0.205759
   14  C  1 XZ   -0.001925   0.000000   0.037474  -0.045534  -0.130007
   15  C  1 YZ    0.173838   0.000000  -0.045534  -0.037474  -0.002994
   16  CL 2  S    0.000000  -0.000123  -0.000000  -0.000000   0.000000
   17  CL 2  S   -0.000000  -0.010378   0.000000  -0.000000   0.000000
   18  CL 2  X    0.000011   0.000000  -0.003038   0.003691  -0.026805
   19  CL 2  Y   -0.000989   0.000000   0.003691   0.003038  -0.000617
   20  CL 2  Z    0.000000   0.025812  -0.000000   0.000000  -0.000000
   21  CL 2  S   -0.000000  -0.019425   0.000000  -0.000000   0.000000
   22  CL 2  X   -0.000206  -0.000000   0.016028  -0.019476   0.117934
   23  CL 2  Y    0.018593  -0.000000  -0.019476  -0.016029   0.002716
   24  CL 2  Z   -0.000000  -0.092947   0.000000  -0.000000   0.000000
   25  CL 2  S   -0.000000   0.230322   0.000000   0.000000  -0.000000
   26  CL 2  X   -0.001006   0.000000   0.021155  -0.025705  -0.249344
   27  CL 2  Y    0.090807   0.000000  -0.025705  -0.021155  -0.005743
   28  CL 2  Z    0.000000  -0.006870  -0.000000  -0.000000   0.000000
   29  CL 2 XX   -0.338068   0.141345  -0.611531  -0.503285  -0.001984
   30  CL 2 YY    0.338068   0.141343   0.611531   0.503285   0.001984
   31  CL 2 ZZ   -0.000000  -0.329063   0.000000  -0.000000  -0.000000
   32  CL 2 XY    0.004322   0.000001   0.581144  -0.706135  -0.099472
   33  CL 2 XZ    0.003854  -0.000000  -0.037583   0.045666   0.865656
   34  CL 2 YZ   -0.348056  -0.000000   0.045666   0.037583   0.019938
   35  H  3  S   -0.612663   0.548002   0.222058   0.182753  -0.010507
   36  H  3  S    1.389607  -0.874622  -0.578763  -0.476319   0.005081
   37  H  4  S    0.312207   0.548002  -0.269297   0.100933  -0.389835
   38  H  4  S   -0.708129  -0.874622   0.701884  -0.263065   0.188515
   39  H  5  S    0.300457   0.548002   0.047239  -0.283683   0.400342
   40  H  5  S   -0.681478  -0.874623  -0.123121   0.739381  -0.193596

                     31         32         33         34         35
                    1.2135     1.2985     1.5019     1.9821     1.9821
                     A          A          A          A          A   
    1  C  1  S   -0.000000  -0.039943  -0.153438   0.000000  -0.000000
    2  C  1  S   -0.000002  -1.809864  -1.017839   0.000000  -0.000000
    3  C  1  X   -0.003440  -0.000000   0.000000   0.003807  -0.072110
    4  C  1  Y    0.149337   0.000000  -0.000000  -0.072110  -0.003807
    5  C  1  Z    0.000000  -0.317898  -0.004311   0.000000  -0.000000
    6  C  1  S    0.000005   3.979101   3.810707  -0.000000   0.000000
    7  C  1  X   -0.008000  -0.000000  -0.000000  -0.017475   0.331001
    8  C  1  Y    0.347338  -0.000001  -0.000001   0.331001   0.017475
    9  C  1  Z    0.000000   0.178450   0.737958  -0.000000   0.000000
   10  C  1 XX    0.178193  -0.127568  -0.019710  -0.457452  -0.024151
   11  C  1 YY   -0.178193  -0.127568  -0.019709   0.457452   0.024151
   12  C  1 ZZ   -0.000000  -0.038600  -0.239942   0.000000   0.000000
   13  C  1 XY   -0.004739   0.000000   0.000000   0.027887  -0.528220
   14  C  1 XZ    0.002994  -0.000000  -0.000000  -0.043449   0.823003
   15  C  1 YZ   -0.130006   0.000000   0.000000   0.823002   0.043449
   16  CL 2  S    0.000000  -0.006654   0.016431   0.000000   0.000000
   17  CL 2  S    0.000000   0.014489   0.040154  -0.000000   0.000000
   18  CL 2  X    0.000617   0.000000  -0.000000  -0.000380   0.007200
   19  CL 2  Y   -0.026805   0.000000  -0.000000   0.007200   0.000380
   20  CL 2  Z    0.000000  -0.066035   0.000348   0.000000  -0.000000
   21  CL 2  S    0.000000  -0.111567   0.544751   0.000000   0.000000
   22  CL 2  X   -0.002716  -0.000000  -0.000000  -0.000132   0.002507
   23  CL 2  Y    0.117934  -0.000000   0.000000   0.002507   0.000132
   24  CL 2  Z    0.000000   0.346226  -0.008907  -0.000000   0.000000
   25  CL 2  S   -0.000001  -0.509781  -1.921439   0.000000  -0.000000
   26  CL 2  X    0.005743   0.000000   0.000000   0.009426  -0.178550
   27  CL 2  Y   -0.249344   0.000000  -0.000000  -0.178550  -0.009426
   28  CL 2  Z    0.000001   0.136727   1.293051  -0.000000   0.000000
   29  CL 2 XX   -0.086145  -0.268317   0.391553   0.019387   0.001024
   30  CL 2 YY    0.086145  -0.268317   0.391553  -0.019387  -0.001024
   31  CL 2 ZZ    0.000000   0.458644  -0.728824   0.000000  -0.000000
   32  CL 2 XY    0.002291  -0.000000  -0.000000  -0.001182   0.022386
   33  CL 2 XZ   -0.019938  -0.000000  -0.000000  -0.017353   0.328695
   34  CL 2 YZ    0.865656  -0.000001  -0.000000   0.328694   0.017353
   35  H  3  S   -0.456209  -0.078943  -0.551325  -0.046430  -0.002451
   36  H  3  S    0.220610  -0.819855  -0.261107  -0.145542  -0.007684
   37  H  4  S    0.237204  -0.078944  -0.551326   0.025338  -0.038984
   38  H  4  S   -0.114707  -0.819856  -0.261107   0.079425  -0.122201
   39  H  5  S    0.219005  -0.078944  -0.551326   0.021092   0.041435
   40  H  5  S   -0.105906  -0.819856  -0.261107   0.066117   0.129885

                     36         37         38         39         40
                    2.4719     2.5391     2.5391     4.5095     4.7498
                     A          A          A          A          A   
    1  C  1  S   -0.017301   0.000000   0.000000  -0.442405   0.212358
    2  C  1  S   -0.317557  -0.000000  -0.000000   2.615196  -1.313602
    3  C  1  X    0.000000   0.003123  -0.153023  -0.000000  -0.000000
    4  C  1  Y   -0.000000  -0.153023  -0.003123   0.000000  -0.000000
    5  C  1  Z    0.020957   0.000000   0.000000   0.008414   0.020461
    6  C  1  S    0.771446  -0.000000  -0.000000   2.177645  -1.146892
    7  C  1  X    0.000000   0.010497  -0.514268  -0.000000   0.000000
    8  C  1  Y   -0.000000  -0.514268  -0.010497  -0.000000   0.000000
    9  C  1  Z    0.795658  -0.000000   0.000000   0.031027  -0.067852
   10  C  1 XX   -0.543424   0.818860   0.016714  -1.738488   0.787151
   11  C  1 YY   -0.543425  -0.818860  -0.016714  -1.738488   0.787151
   12  C  1 ZZ    1.082360  -0.000000   0.000000  -1.584958   0.944796
   13  C  1 XY   -0.000000  -0.019299   0.945538   0.000000   0.000000
   14  C  1 XZ   -0.000000  -0.012567   0.615697   0.000000  -0.000000
   15  C  1 YZ   -0.000000   0.615698   0.012567   0.000000  -0.000000
   16  CL 2  S   -0.017622   0.000000  -0.000000   0.074352   0.152300
   17  CL 2  S    0.108494  -0.000000   0.000000  -0.348482  -0.721892
   18  CL 2  X   -0.000000  -0.000161   0.007893   0.000000  -0.000000
   19  CL 2  Y    0.000000   0.007893   0.000161  -0.000000   0.000000
   20  CL 2  Z   -0.100270   0.000000  -0.000000   0.005868  -0.017263
   21  CL 2  S   -0.304261   0.000000  -0.000000   2.368557   4.979261
   22  CL 2  X    0.000000   0.000573  -0.028096  -0.000000   0.000000
   23  CL 2  Y   -0.000000  -0.028096  -0.000573   0.000000  -0.000000
   24  CL 2  Z    0.372372  -0.000000   0.000000   0.035768   0.045149
   25  CL 2  S   -0.782680   0.000000  -0.000000  -0.284437   0.326545
   26  CL 2  X   -0.000000  -0.002365   0.115884   0.000000  -0.000000
   27  CL 2  Y   -0.000000   0.115884   0.002365  -0.000000   0.000000
   28  CL 2  Z    0.434647  -0.000000   0.000000   0.172738  -0.199938
   29  CL 2 XX    0.377914  -0.027554  -0.000562  -1.067135  -2.203286
   30  CL 2 YY    0.377914   0.027554   0.000562  -1.067135  -2.203286
   31  CL 2 ZZ   -0.376980   0.000000  -0.000000  -0.997948  -2.260605
   32  CL 2 XY    0.000000   0.000649  -0.031817  -0.000000   0.000000
   33  CL 2 XZ   -0.000000  -0.000142   0.006937   0.000000   0.000000
   34  CL 2 YZ    0.000000   0.006938   0.000142  -0.000000   0.000000
   35  H  3  S    0.214181   0.818388   0.016704   0.133834  -0.021771
   36  H  3  S   -0.013940  -0.066812  -0.001364  -0.459088   0.183101
   37  H  4  S    0.214181  -0.423660   0.700393   0.133833  -0.021771
   38  H  4  S   -0.013940   0.034587  -0.057179  -0.459088   0.183101
   39  H  5  S    0.214181  -0.394728  -0.717097   0.133833  -0.021771
   40  H  5  S   -0.013940   0.032225   0.058543  -0.459088   0.183101

  ----- BETA SET ----- 

          ------------
          EIGENVECTORS
          ------------

                      1          2          3          4          5
                 -104.8124   -11.2923   -10.5463    -8.0158    -8.0124
                     A          A          A          A          A   
    1  C  1  S   -0.000005   0.995778  -0.000221   0.000021  -0.000000
    2  C  1  S    0.000044   0.028019   0.000452  -0.001172   0.000000
    3  C  1  X   -0.000000  -0.000000  -0.000000  -0.000000   0.000022
    4  C  1  Y    0.000000   0.000000  -0.000000   0.000000  -0.000024
    5  C  1  Z    0.000072   0.000745  -0.000237   0.000628   0.000000
    6  C  1  S    0.000104  -0.013614   0.000273   0.001661  -0.000000
    7  C  1  X   -0.000000   0.000000  -0.000000  -0.000000  -0.000004
    8  C  1  Y   -0.000000  -0.000000   0.000000  -0.000000   0.000005
    9  C  1  Z   -0.000100  -0.000898   0.000885   0.000227  -0.000000
   10  C  1 XX   -0.000010  -0.001721  -0.000003  -0.000164   0.000010
   11  C  1 YY   -0.000010  -0.001721  -0.000003  -0.000164  -0.000010
   12  C  1 ZZ   -0.000035  -0.002164  -0.000646   0.001323  -0.000000
   13  C  1 XY   -0.000000  -0.000000  -0.000000  -0.000000  -0.000011
   14  C  1 XZ   -0.000000  -0.000000  -0.000000  -0.000000   0.000134
   15  C  1 YZ   -0.000000  -0.000000  -0.000000  -0.000000  -0.000146
   16  CL 2  S    0.996117  -0.000034  -0.286736  -0.001514  -0.000000
   17  CL 2  S    0.014647   0.000071   1.030578   0.005656   0.000000
   18  CL 2  X   -0.000000  -0.000000  -0.000000  -0.000000  -0.671611
   19  CL 2  Y    0.000000  -0.000000   0.000000  -0.000001   0.732224
   20  CL 2  Z   -0.000056   0.000032  -0.004590   0.992813   0.000001
   21  CL 2  S   -0.017735   0.000298   0.026180  -0.002648  -0.000000
   22  CL 2  X   -0.000000  -0.000000  -0.000000  -0.000000  -0.013709
   23  CL 2  Y   -0.000000   0.000000   0.000000  -0.000000   0.014946
   24  CL 2  Z    0.000044  -0.000330  -0.001117   0.022821   0.000000
   25  CL 2  S    0.001502   0.002570  -0.006788   0.000117   0.000000
   26  CL 2  X   -0.000000  -0.000000  -0.000000   0.000000   0.003096
   27  CL 2  Y    0.000000  -0.000000  -0.000000   0.000000  -0.003376
   28  CL 2  Z   -0.000080  -0.001571   0.001307  -0.005291  -0.000000
   29  CL 2 XX    0.006266  -0.000164  -0.001759   0.001009   0.000003
   30  CL 2 YY    0.006266  -0.000164  -0.001759   0.001009  -0.000003
   31  CL 2 ZZ    0.006274  -0.000234  -0.001326  -0.000286   0.000000
   32  CL 2 XY   -0.000000  -0.000000  -0.000000  -0.000000  -0.000003
   33  CL 2 XZ   -0.000000   0.000000  -0.000000  -0.000000   0.000231
   34  CL 2 YZ   -0.000000  -0.000000  -0.000000   0.000000  -0.000252
   35  H  3  S   -0.000014   0.000121  -0.000098  -0.000077  -0.000051
   36  H  3  S   -0.000089   0.002324   0.000587  -0.000808   0.000413
   37  H  4  S   -0.000014   0.000121  -0.000098  -0.000077   0.000066
   38  H  4  S   -0.000089   0.002324   0.000587  -0.000808  -0.000534
   39  H  5  S   -0.000014   0.000121  -0.000098  -0.000077  -0.000015
   40  H  5  S   -0.000089   0.002324   0.000587  -0.000808   0.000121

                      6          7          8          9         10
                   -8.0124    -1.1302    -0.9159    -0.6191    -0.6191
                     A          A          A          A          A   
    1  C  1  S   -0.000000  -0.109154   0.159969  -0.000000  -0.000000
    2  C  1  S    0.000000   0.201150  -0.305230   0.000000   0.000000
    3  C  1  X   -0.000024  -0.000000   0.000000  -0.032129   0.429450
    4  C  1  Y   -0.000022  -0.000000   0.000000   0.429450   0.032129
    5  C  1  Z    0.000000   0.074019   0.110865  -0.000000   0.000000
    6  C  1  S   -0.000000   0.195588  -0.345578  -0.000000   0.000000
    7  C  1  X    0.000005  -0.000000  -0.000000  -0.017104   0.228622
    8  C  1  Y    0.000004  -0.000000   0.000000   0.228622   0.017104
    9  C  1  Z   -0.000000   0.020473   0.026866  -0.000000   0.000000
   10  C  1 XX    0.000009   0.001554  -0.015286  -0.024879  -0.001861
   11  C  1 YY   -0.000009   0.001554  -0.015286   0.024879   0.001861
   12  C  1 ZZ   -0.000000   0.018146   0.009491   0.000000  -0.000000
   13  C  1 XY    0.000012  -0.000000   0.000000   0.002149  -0.028728
   14  C  1 XZ   -0.000146   0.000000  -0.000000   0.000884  -0.011820
   15  C  1 YZ   -0.000134  -0.000000   0.000000  -0.011820  -0.000884
   16  CL 2  S   -0.000000   0.066839   0.044266   0.000000  -0.000000
   17  CL 2  S    0.000000  -0.304925  -0.203387  -0.000000   0.000000
   18  CL 2  X    0.732224   0.000000  -0.000000   0.006493  -0.086793
   19  CL 2  Y    0.671611  -0.000000   0.000000  -0.086793  -0.006493
   20  CL 2  Z    0.000001   0.043277  -0.044804  -0.000000   0.000000
   21  CL 2  S   -0.000000   0.590541   0.409388   0.000000  -0.000000
   22  CL 2  X    0.014946  -0.000000   0.000000  -0.016446   0.219825
   23  CL 2  Y    0.013709   0.000000  -0.000000   0.219824   0.016446
   24  CL 2  Z    0.000000  -0.100301   0.107723   0.000000  -0.000000
   25  CL 2  S    0.000000   0.235473   0.244140   0.000000  -0.000000
   26  CL 2  X   -0.003376  -0.000000   0.000000  -0.006302   0.084234
   27  CL 2  Y   -0.003096  -0.000000  -0.000000   0.084234   0.006302
   28  CL 2  Z   -0.000000  -0.007604   0.006775   0.000000   0.000000
   29  CL 2 XX    0.000003  -0.006705   0.005624  -0.000833  -0.000062
   30  CL 2 YY   -0.000003  -0.006705   0.005624   0.000833   0.000062
   31  CL 2 ZZ    0.000000   0.033168  -0.017053  -0.000000   0.000000
   32  CL 2 XY    0.000003   0.000000   0.000000   0.000072  -0.000962
   33  CL 2 XZ   -0.000252   0.000000  -0.000000   0.001673  -0.022369
   34  CL 2 YZ   -0.000231  -0.000000   0.000000  -0.022369  -0.001673
   35  H  3  S   -0.000047   0.056695  -0.134135   0.249161   0.018641
   36  H  3  S    0.000379   0.002117  -0.042091   0.166955   0.012491
   37  H  4  S   -0.000021   0.056695  -0.134135  -0.140724   0.206459
   38  H  4  S    0.000168   0.002117  -0.042091  -0.094294   0.138342
   39  H  5  S    0.000068   0.056695  -0.134135  -0.108437  -0.225100
   40  H  5  S   -0.000547   0.002117  -0.042091  -0.072660  -0.150832

                     11         12         13         14         15
                   -0.5479    -0.4347    -0.4347     0.1953     0.2577
                     A          A          A          A          A   
    1  C  1  S    0.003761   0.000000  -0.000000  -0.142299  -0.074784
    2  C  1  S    0.007428  -0.000000  -0.000000   0.145419   0.023697
    3  C  1  X    0.000000  -0.006387  -0.156913  -0.000000  -0.000000
    4  C  1  Y   -0.000000  -0.156913   0.006387   0.000000  -0.000000
    5  C  1  Z   -0.347049  -0.000000   0.000000   0.243030  -0.312906
    6  C  1  S   -0.081228   0.000000   0.000000   2.017738   1.704037
    7  C  1  X    0.000000  -0.002818  -0.069233  -0.000000  -0.000000
    8  C  1  Y   -0.000000  -0.069232   0.002818  -0.000000  -0.000001
    9  C  1  Z   -0.213680  -0.000000  -0.000000   0.666986  -1.072644
   10  C  1 XX    0.015043   0.010955  -0.000446  -0.004176  -0.017538
   11  C  1 YY    0.015043  -0.010955   0.000446  -0.004176  -0.017538
   12  C  1 ZZ   -0.037180   0.000000  -0.000000  -0.011526   0.011212
   13  C  1 XY   -0.000000   0.000515   0.012650   0.000000   0.000000
   14  C  1 XZ    0.000000   0.000994   0.024418  -0.000000  -0.000000
   15  C  1 YZ    0.000000   0.024418  -0.000994   0.000000  -0.000000
   16  CL 2  S    0.014858   0.000000  -0.000000  -0.016518   0.021218
   17  CL 2  S   -0.072045  -0.000000  -0.000000   0.094842  -0.075724
   18  CL 2  X   -0.000000  -0.010839  -0.266265  -0.000000  -0.000000
   19  CL 2  Y    0.000000  -0.266265   0.010839   0.000000  -0.000000
   20  CL 2  Z   -0.222618  -0.000000   0.000000  -0.124515   0.072396
   21  CL 2  S    0.147161   0.000000  -0.000000  -0.124040   0.282108
   22  CL 2  X    0.000000   0.028150   0.691545   0.000000   0.000000
   23  CL 2  Y   -0.000000   0.691545  -0.028150  -0.000000   0.000000
   24  CL 2  Z    0.566041   0.000000  -0.000000   0.317176  -0.194584
   25  CL 2  S    0.205527   0.000000   0.000000  -0.822185   0.248805
   26  CL 2  X    0.000000   0.016766   0.411876  -0.000000   0.000000
   27  CL 2  Y   -0.000000   0.411876  -0.016766  -0.000000   0.000000
   28  CL 2  Z    0.185800   0.000000  -0.000000   1.015789  -0.490493
   29  CL 2 XX    0.019134   0.001123  -0.000046  -0.039288   0.029898
   30  CL 2 YY    0.019134  -0.001123   0.000046  -0.039288   0.029899
   31  CL 2 ZZ   -0.066498  -0.000000  -0.000000   0.103927  -0.019149
   32  CL 2 XY    0.000000   0.000053   0.001297   0.000000   0.000000
   33  CL 2 XZ   -0.000000  -0.000171  -0.004199  -0.000000  -0.000000
   34  CL 2 YZ    0.000000  -0.004199   0.000171  -0.000000   0.000000
   35  H  3  S    0.075217  -0.122085   0.004970  -0.002027  -0.016600
   36  H  3  S    0.067663  -0.140044   0.005701  -0.532392  -1.072415
   37  H  4  S    0.075217   0.056739  -0.108214  -0.002027  -0.016600
   38  H  4  S    0.067664   0.065085  -0.124132  -0.532391  -1.072416
   39  H  5  S    0.075217   0.065346   0.103244  -0.002027  -0.016600
   40  H  5  S    0.067664   0.074959   0.118432  -0.532391  -1.072416

                     16         17         18         19         20
                    0.2899     0.2899     0.5875     0.6256     0.6521
                     A          A          A          A          A   
    1  C  1  S    0.000000   0.000000  -0.007810   0.020137  -0.000000
    2  C  1  S   -0.000000  -0.000000  -0.014511  -0.189421  -0.000000
    3  C  1  X   -0.309601  -0.073887   0.000000  -0.000000  -0.080335
    4  C  1  Y    0.073887  -0.309601  -0.000000   0.000000  -0.105384
    5  C  1  Z    0.000000   0.000000  -0.250483   0.273411   0.000000
    6  C  1  S   -0.000000  -0.000000   0.087161   0.596945   0.000000
    7  C  1  X   -1.469649  -0.350734   0.000000   0.000000   0.141174
    8  C  1  Y    0.350734  -1.469649   0.000000  -0.000000   0.185194
    9  C  1  Z   -0.000000   0.000001  -0.300899  -0.257864  -0.000000
   10  C  1 XX    0.002969  -0.012439   0.004458  -0.059859   0.022696
   11  C  1 YY   -0.002969   0.012439   0.004458  -0.059859  -0.022696
   12  C  1 ZZ   -0.000000  -0.000000  -0.047622   0.143251   0.000000
   13  C  1 XY   -0.014364  -0.003428   0.000000   0.000000   0.019978
   14  C  1 XZ   -0.011302  -0.002697  -0.000000   0.000000   0.006650
   15  C  1 YZ    0.002697  -0.011302   0.000000  -0.000000   0.008724
   16  CL 2  S   -0.000000  -0.000000  -0.063077   0.008302   0.000000
   17  CL 2  S    0.000000   0.000000   0.055689   0.024306   0.000000
   18  CL 2  X   -0.005748  -0.001372  -0.000000   0.000000   0.177862
   19  CL 2  Y    0.001372  -0.005748   0.000000  -0.000000   0.233321
   20  CL 2  Z   -0.000000  -0.000000   0.107116   0.239838   0.000000
   21  CL 2  S   -0.000000  -0.000000  -1.312913   0.237655   0.000000
   22  CL 2  X    0.002757   0.000658   0.000000  -0.000000  -0.691856
   23  CL 2  Y   -0.000658   0.002757  -0.000000   0.000001  -0.907585
   24  CL 2  Z    0.000000   0.000000  -0.359420  -0.987415  -0.000000
   25  CL 2  S    0.000000  -0.000001   2.008495  -0.525560  -0.000000
   26  CL 2  X    0.245217   0.058521  -0.000000   0.000000   0.710108
   27  CL 2  Y   -0.058521   0.245217   0.000000  -0.000001   0.931529
   28  CL 2  Z   -0.000000   0.000001  -0.055739   1.358698   0.000000
   29  CL 2 XX    0.004672  -0.019576  -0.060797  -0.054180   0.005067
   30  CL 2 YY   -0.004672   0.019576  -0.060797  -0.054180  -0.005067
   31  CL 2 ZZ   -0.000000   0.000000  -0.275476   0.253176   0.000000
   32  CL 2 XY   -0.022605  -0.005395   0.000000  -0.000000   0.004460
   33  CL 2 XZ    0.058434   0.013945  -0.000000   0.000000  -0.000252
   34  CL 2 YZ   -0.013945   0.058434   0.000000  -0.000000  -0.000331
   35  H  3  S   -0.017521   0.073415  -0.026164  -0.103690  -0.132927
   36  H  3  S   -0.436484   1.828960  -0.253581   0.140347  -0.099505
   37  H  4  S    0.072340  -0.021534  -0.026164  -0.103690  -0.021292
   38  H  4  S    1.802167  -0.536473  -0.253582   0.140347  -0.015938
   39  H  5  S   -0.054819  -0.051881  -0.026164  -0.103690   0.154219
   40  H  5  S   -1.365683  -1.292485  -0.253582   0.140347   0.115444

                     21         22         23         24         25
                    0.6521     0.7277     0.7277     0.7862     1.1041
                     A          A          A          A          A   
    1  C  1  S   -0.000000   0.000000  -0.000000   0.032092  -0.000000
    2  C  1  S    0.000000  -0.000000  -0.000000  -0.164673   0.000000
    3  C  1  X   -0.105384  -0.700759  -0.044299  -0.000000  -0.838089
    4  C  1  Y    0.080335   0.044299  -0.700759  -0.000001  -0.009280
    5  C  1  Z   -0.000000  -0.000000   0.000001  -0.831768  -0.000000
    6  C  1  S   -0.000000   0.000000   0.000000   0.330283  -0.000000
    7  C  1  X    0.185194   1.428236   0.090287   0.000000   1.338988
    8  C  1  Y   -0.141174  -0.090287   1.428237   0.000001   0.014826
    9  C  1  Z    0.000000   0.000000  -0.000002   1.932343   0.000000
   10  C  1 XX   -0.017301  -0.004868   0.077010   0.011012  -0.000856
   11  C  1 YY    0.017301   0.004868  -0.077010   0.011012   0.000856
   12  C  1 ZZ   -0.000000  -0.000000   0.000000  -0.036371   0.000000
   13  C  1 XY    0.026207   0.088923   0.005621  -0.000000  -0.089248
   14  C  1 XZ    0.008724   0.069240   0.004377   0.000000  -0.173838
   15  C  1 YZ   -0.006650  -0.004377   0.069240   0.000000  -0.001925
   16  CL 2  S   -0.000000  -0.000000  -0.000000   0.025139  -0.000000
   17  CL 2  S   -0.000000   0.000000   0.000000  -0.015810   0.000000
   18  CL 2  X    0.233321  -0.061188  -0.003868  -0.000000   0.000989
   19  CL 2  Y   -0.177862   0.003868  -0.061188   0.000000   0.000011
   20  CL 2  Z   -0.000000  -0.000000  -0.000000   0.151354  -0.000000
   21  CL 2  S   -0.000000   0.000000  -0.000000   0.567397  -0.000000
   22  CL 2  X   -0.907585   0.269567   0.017041   0.000000  -0.018593
   23  CL 2  Y    0.691856  -0.017041   0.269567  -0.000000  -0.000206
   24  CL 2  Z    0.000000   0.000000   0.000000  -0.520240  -0.000000
   25  CL 2  S    0.000000  -0.000000   0.000001  -1.774773   0.000000
   26  CL 2  X    0.931529  -0.659928  -0.041718  -0.000000  -0.090807
   27  CL 2  Y   -0.710108   0.041718  -0.659928  -0.000000  -0.001005
   28  CL 2  Z   -0.000001   0.000000  -0.000001   1.361791  -0.000000
   29  CL 2 XX   -0.003862  -0.000905   0.014310   0.096804   0.003743
   30  CL 2 YY    0.003862   0.000905  -0.014311   0.096804  -0.003743
   31  CL 2 ZZ   -0.000000  -0.000000   0.000000  -0.107033   0.000000
   32  CL 2 XY    0.005851   0.016524   0.001045  -0.000000   0.390367
   33  CL 2 XZ   -0.000330  -0.244024  -0.015426  -0.000000   0.348056
   34  CL 2 YZ    0.000252   0.015426  -0.244024  -0.000000   0.003854
   35  H  3  S    0.101331   0.029207  -0.462022   0.234106   0.006784
   36  H  3  S    0.075853   0.006276  -0.099275   0.325705  -0.015386
   37  H  4  S   -0.165784  -0.414726   0.205717   0.234106   0.527190
   38  H  4  S   -0.124101  -0.089112   0.044203   0.325706  -1.195742
   39  H  5  S    0.064453   0.385519   0.256305   0.234106  -0.533974
   40  H  5  S    0.048247   0.082836   0.055072   0.325706   1.211128

                     26         27         28         29         30
                    1.1041     1.1650     1.1732     1.1732     1.2135
                     A          A          A          A          A   
    1  C  1  S   -0.000000   0.035775   0.000000   0.000000  -0.000000
    2  C  1  S   -0.000000  -0.876520  -0.000000  -0.000001  -0.000000
    3  C  1  X   -0.009280   0.000000   0.248972  -0.302520   0.149337
    4  C  1  Y    0.838089   0.000000  -0.302521  -0.248972   0.003439
    5  C  1  Z    0.000000   0.655491   0.000000   0.000001   0.000000
    6  C  1  S    0.000001   1.923531   0.000000   0.000002   0.000001
    7  C  1  X    0.014826  -0.000001  -0.438354   0.532634   0.347337
    8  C  1  Y   -1.338989  -0.000001   0.532635   0.438355   0.008000
    9  C  1  Z    0.000000  -0.755319  -0.000000  -0.000001  -0.000000
   10  C  1 XX    0.077291   0.023711  -0.060623  -0.049892   0.004104
   11  C  1 YY   -0.077291   0.023711   0.060623   0.049892  -0.004104
   12  C  1 ZZ   -0.000000  -0.219418  -0.000000  -0.000000  -0.000000
   13  C  1 XY   -0.000988   0.000000   0.057611  -0.070001   0.205759
   14  C  1 XZ   -0.001925   0.000000   0.037474  -0.045534  -0.130007
   15  C  1 YZ    0.173838   0.000000  -0.045534  -0.037474  -0.002994
   16  CL 2  S    0.000000  -0.000123  -0.000000  -0.000000   0.000000
   17  CL 2  S   -0.000000  -0.010378   0.000000  -0.000000   0.000000
   18  CL 2  X    0.000011   0.000000  -0.003038   0.003691  -0.026805
   19  CL 2  Y   -0.000989   0.000000   0.003691   0.003038  -0.000617
   20  CL 2  Z    0.000000   0.025812  -0.000000   0.000000  -0.000000
   21  CL 2  S   -0.000000  -0.019425   0.000000  -0.000000   0.000000
   22  CL 2  X   -0.000206  -0.000000   0.016028  -0.019476   0.117934
   23  CL 2  Y    0.018593  -0.000000  -0.019476  -0.016029   0.002716
   24  CL 2  Z   -0.000000  -0.092947   0.000000  -0.000000   0.000000
   25  CL 2  S   -0.000000   0.230322   0.000000   0.000000  -0.000000
   26  CL 2  X   -0.001006   0.000000   0.021155  -0.025705  -0.249344
   27  CL 2  Y    0.090807   0.000000  -0.025705  -0.021155  -0.005743
   28  CL 2  Z    0.000000  -0.006870  -0.000000  -0.000000   0.000000
   29  CL 2 XX   -0.338068   0.141345  -0.611531  -0.503285  -0.001984
   30  CL 2 YY    0.338068   0.141343   0.611531   0.503285   0.001984
   31  CL 2 ZZ   -0.000000  -0.329063   0.000000  -0.000000  -0.000000
   32  CL 2 XY    0.004322   0.000001   0.581144  -0.706135  -0.099472
   33  CL 2 XZ    0.003854  -0.000000  -0.037583   0.045666   0.865656
   34  CL 2 YZ   -0.348056  -0.000000   0.045666   0.037583   0.019938
   35  H  3  S   -0.612663   0.548002   0.222058   0.182753  -0.010507
   36  H  3  S    1.389607  -0.874622  -0.578763  -0.476319   0.005081
   37  H  4  S    0.312207   0.548002  -0.269297   0.100933  -0.389835
   38  H  4  S   -0.708129  -0.874622   0.701884  -0.263065   0.188515
   39  H  5  S    0.300457   0.548002   0.047239  -0.283683   0.400342
   40  H  5  S   -0.681478  -0.874623  -0.123121   0.739381  -0.193596

                     31         32         33         34         35
                    1.2135     1.2985     1.5019     1.9821     1.9821
                     A          A          A          A          A   
    1  C  1  S   -0.000000  -0.039943  -0.153438   0.000000  -0.000000
    2  C  1  S   -0.000002  -1.809864  -1.017839   0.000000  -0.000000
    3  C  1  X   -0.003440  -0.000000   0.000000   0.003807  -0.072110
    4  C  1  Y    0.149337   0.000000  -0.000000  -0.072110  -0.003807
    5  C  1  Z    0.000000  -0.317898  -0.004311   0.000000  -0.000000
    6  C  1  S    0.000005   3.979101   3.810707  -0.000000   0.000000
    7  C  1  X   -0.008000  -0.000000  -0.000000  -0.017475   0.331001
    8  C  1  Y    0.347338  -0.000001  -0.000001   0.331001   0.017475
    9  C  1  Z    0.000000   0.178450   0.737958  -0.000000   0.000000
   10  C  1 XX    0.178193  -0.127568  -0.019710  -0.457452  -0.024151
   11  C  1 YY   -0.178193  -0.127568  -0.019709   0.457452   0.024151
   12  C  1 ZZ   -0.000000  -0.038600  -0.239942   0.000000   0.000000
   13  C  1 XY   -0.004739   0.000000   0.000000   0.027887  -0.528220
   14  C  1 XZ    0.002994  -0.000000  -0.000000  -0.043449   0.823003
   15  C  1 YZ   -0.130006   0.000000   0.000000   0.823002   0.043449
   16  CL 2  S    0.000000  -0.006654   0.016431   0.000000   0.000000
   17  CL 2  S    0.000000   0.014489   0.040154  -0.000000   0.000000
   18  CL 2  X    0.000617   0.000000  -0.000000  -0.000380   0.007200
   19  CL 2  Y   -0.026805   0.000000  -0.000000   0.007200   0.000380
   20  CL 2  Z    0.000000  -0.066035   0.000348   0.000000  -0.000000
   21  CL 2  S    0.000000  -0.111567   0.544751   0.000000   0.000000
   22  CL 2  X   -0.002716  -0.000000  -0.000000  -0.000132   0.002507
   23  CL 2  Y    0.117934  -0.000000   0.000000   0.002507   0.000132
   24  CL 2  Z    0.000000   0.346226  -0.008907  -0.000000   0.000000
   25  CL 2  S   -0.000001  -0.509781  -1.921439   0.000000  -0.000000
   26  CL 2  X    0.005743   0.000000   0.000000   0.009426  -0.178550
   27  CL 2  Y   -0.249344   0.000000  -0.000000  -0.178550  -0.009426
   28  CL 2  Z    0.000001   0.136727   1.293051  -0.000000   0.000000
   29  CL 2 XX   -0.086145  -0.268317   0.391553   0.019387   0.001024
   30  CL 2 YY    0.086145  -0.268317   0.391553  -0.019387  -0.001024
   31  CL 2 ZZ    0.000000   0.458644  -0.728824   0.000000  -0.000000
   32  CL 2 XY    0.002291  -0.000000  -0.000000  -0.001182   0.022386
   33  CL 2 XZ   -0.019938  -0.000000  -0.000000  -0.017353   0.328695
   34  CL 2 YZ    0.865656  -0.000001  -0.000000   0.328694   0.017353
   35  H  3  S   -0.456209  -0.078943  -0.551325  -0.046430  -0.002451
   36  H  3  S    0.220610  -0.819855  -0.261107  -0.145542  -0.007684
   37  H  4  S    0.237204  -0.078944  -0.551326   0.025338  -0.038984
   38  H  4  S   -0.114707  -0.819856  -0.261107   0.079425  -0.122201
   39  H  5  S    0.219005  -0.078944  -0.551326   0.021092   0.041435
   40  H  5  S   -0.105906  -0.819856  -0.261107   0.066117   0.129885

                     36         37         38         39         40
                    2.4719     2.5391     2.5391     4.5095     4.7498
                     A          A          A          A          A   
    1  C  1  S   -0.017301   0.000000   0.000000  -0.442405   0.212358
    2  C  1  S   -0.317557  -0.000000  -0.000000   2.615196  -1.313602
    3  C  1  X    0.000000   0.003123  -0.153023  -0.000000  -0.000000
    4  C  1  Y   -0.000000  -0.153023  -0.003123   0.000000  -0.000000
    5  C  1  Z    0.020957   0.000000   0.000000   0.008414   0.020461
    6  C  1  S    0.771446  -0.000000  -0.000000   2.177645  -1.146892
    7  C  1  X    0.000000   0.010497  -0.514268  -0.000000   0.000000
    8  C  1  Y   -0.000000  -0.514268  -0.010497  -0.000000   0.000000
    9  C  1  Z    0.795658  -0.000000   0.000000   0.031027  -0.067852
   10  C  1 XX   -0.543424   0.818860   0.016714  -1.738488   0.787151
   11  C  1 YY   -0.543425  -0.818860  -0.016714  -1.738488   0.787151
   12  C  1 ZZ    1.082360  -0.000000   0.000000  -1.584958   0.944796
   13  C  1 XY   -0.000000  -0.019299   0.945538   0.000000   0.000000
   14  C  1 XZ   -0.000000  -0.012567   0.615697   0.000000  -0.000000
   15  C  1 YZ   -0.000000   0.615698   0.012567   0.000000  -0.000000
   16  CL 2  S   -0.017622   0.000000  -0.000000   0.074352   0.152300
   17  CL 2  S    0.108494  -0.000000   0.000000  -0.348482  -0.721892
   18  CL 2  X   -0.000000  -0.000161   0.007893   0.000000  -0.000000
   19  CL 2  Y    0.000000   0.007893   0.000161  -0.000000   0.000000
   20  CL 2  Z   -0.100270   0.000000  -0.000000   0.005868  -0.017263
   21  CL 2  S   -0.304261   0.000000  -0.000000   2.368557   4.979261
   22  CL 2  X    0.000000   0.000573  -0.028096  -0.000000   0.000000
   23  CL 2  Y   -0.000000  -0.028096  -0.000573   0.000000  -0.000000
   24  CL 2  Z    0.372372  -0.000000   0.000000   0.035768   0.045149
   25  CL 2  S   -0.782680   0.000000  -0.000000  -0.284437   0.326545
   26  CL 2  X   -0.000000  -0.002365   0.115884   0.000000  -0.000000
   27  CL 2  Y   -0.000000   0.115884   0.002365  -0.000000   0.000000
   28  CL 2  Z    0.434647  -0.000000   0.000000   0.172738  -0.199938
   29  CL 2 XX    0.377914  -0.027554  -0.000562  -1.067135  -2.203286
   30  CL 2 YY    0.377914   0.027554   0.000562  -1.067135  -2.203286
   31  CL 2 ZZ   -0.376980   0.000000  -0.000000  -0.997948  -2.260605
   32  CL 2 XY    0.000000   0.000649  -0.031817  -0.000000   0.000000
   33  CL 2 XZ   -0.000000  -0.000142   0.006937   0.000000   0.000000
   34  CL 2 YZ    0.000000   0.006938   0.000142  -0.000000   0.000000
   35  H  3  S    0.214181   0.818388   0.016704   0.133834  -0.021771
   36  H  3  S   -0.013940  -0.066812  -0.001364  -0.459088   0.183101
   37  H  4  S    0.214181  -0.423660   0.700393   0.133833  -0.021771
   38  H  4  S   -0.013940   0.034587  -0.057179  -0.459088   0.183101
   39  H  5  S    0.214181  -0.394728  -0.717097   0.133833  -0.021771
   40  H  5  S   -0.013940   0.032225   0.058543  -0.459088   0.183101
 ...... END OF UHF CALCULATION ......
 STEP CPU TIME =     0.02 TOTAL CPU TIME =          0.0 (      0.0 MIN)
 TOTAL WALL CLOCK TIME=          0.0 SECONDS, CPU UTILIZATION IS    98.41%

     ----------------------------------------------------------------
     PROPERTY VALUES FOR THE UHF   SELF-CONSISTENT FIELD WAVEFUNCTION
     ----------------------------------------------------------------

          -----------------
          ENERGY COMPONENTS
          -----------------

         WAVEFUNCTION NORMALIZATION =       1.0000000000

                ONE ELECTRON ENERGY =    -790.1750338540
                TWO ELECTRON ENERGY =     239.6943056458
           NUCLEAR REPULSION ENERGY =      51.3878284525
                                      ------------------
                       TOTAL ENERGY =    -499.0928997557

 ELECTRON-ELECTRON POTENTIAL ENERGY =     239.6943056458
  NUCLEUS-ELECTRON POTENTIAL ENERGY =   -1289.0338468162
   NUCLEUS-NUCLEUS POTENTIAL ENERGY =      51.3878284525
                                      ------------------
             TOTAL POTENTIAL ENERGY =    -997.9517127179
               TOTAL KINETIC ENERGY =     498.8588129622
                 VIRIAL RATIO (V/T) =       2.0004692446

          ---------------------------------------
          MULLIKEN AND LOWDIN POPULATION ANALYSES
          ---------------------------------------

     ATOMIC MULLIKEN POPULATION IN EACH MOLECULAR ORBITAL
        ALPHA ORBITALS

                      1          2          3          4          5

                  1.000000   1.000000   1.000000   1.000000   1.000000

    1            -0.000001   0.999052   0.000121  -0.000065  -0.000000
    2             1.000001   0.000243   0.999854   1.000048   0.999997
    3            -0.000000   0.000235   0.000008   0.000006   0.000001
    4            -0.000000   0.000235   0.000008   0.000006   0.000002
    5            -0.000000   0.000235   0.000008   0.000006   0.000000

                      6          7          8          9         10

                  1.000000   1.000000   1.000000   1.000000   1.000000

    1            -0.000000   0.270408   0.488350   0.539234   0.539234
    2             0.999997   0.693618   0.284356   0.108871   0.108871
    3             0.000001   0.011992   0.075765   0.233291   0.001306
    4             0.000000   0.011992   0.075765   0.074417   0.160180
    5             0.000002   0.011992   0.075765   0.044187   0.190410

                     11         12         13

                  1.000000   1.000000   1.000000

    1             0.340213   0.045863   0.045863
    2             0.592306   0.881599   0.881599
    3             0.022494   0.048279   0.000080
    4             0.022494   0.010428   0.037931
    5             0.022494   0.013832   0.034527

     ATOMIC MULLIKEN POPULATION IN EACH MOLECULAR ORBITAL
         BETA ORBITALS

                      1          2          3          4          5

                  1.000000   1.000000   1.000000   1.000000   1.000000

    1            -0.000001   0.999052   0.000121  -0.000065  -0.000000
    2             1.000001   0.000243   0.999854   1.000048   0.999997
    3            -0.000000   0.000235   0.000008   0.000006   0.000001
    4            -0.000000   0.000235   0.000008   0.000006   0.000002
    5            -0.000000   0.000235   0.000008   0.000006   0.000000

                      6          7          8          9         10

                  1.000000   1.000000   1.000000   1.000000   1.000000

    1            -0.000000   0.270408   0.488350   0.539234   0.539234
    2             0.999997   0.693618   0.284356   0.108871   0.108871
    3             0.000001   0.011992   0.075765   0.233291   0.001306
    4             0.000000   0.011992   0.075765   0.074417   0.160180
    5             0.000002   0.011992   0.075765   0.044187   0.190410

                     11         12         13

                  1.000000   1.000000   1.000000

    1             0.340213   0.045863   0.045863
    2             0.592306   0.881599   0.881599
    3             0.022494   0.048279   0.000080
    4             0.022494   0.010428   0.037931
    5             0.022494   0.013832   0.034527

     ATOMIC SPIN POPULATION (ALPHA MINUS BETA)
       ATOM         MULL.POP.                    LOW.POP.
    1 C             0.000000                     0.000000
    2 CL            0.000000                     0.000000
    3 H             0.000000                     0.000000
    4 H             0.000000                     0.000000
    5 H             0.000000                     0.000000


          ********* ALL ELECTRONS ********

               ----- POPULATIONS IN EACH AO -----
                             MULLIKEN      LOWDIN
              1  C  1  S      1.99659     1.98128
              2  C  1  S      0.63238     0.35891
              3  C  1  X      0.74140     0.67106
              4  C  1  Y      0.74140     0.67066
              5  C  1  Z      0.51967     0.48163
              6  C  1  S      0.71308     0.35323
              7  C  1  X      0.40964     0.50457
              8  C  1  Y      0.40964     0.50376
              9  C  1  Z      0.27956     0.40396
             10  C  1 XX      0.02401     0.16437
             11  C  1 YY      0.02401     0.16437
             12  C  1 ZZ      0.01696     0.15339
             13  C  1 XY      0.01011     0.01414
             14  C  1 XZ      0.00904     0.01554
             15  C  1 YZ      0.00904     0.01550
             16  CL 2  S      1.99889     1.99843
             17  CL 2  S      1.99827     1.98114
             18  CL 2  X      1.99496     1.97658
             19  CL 2  Y      1.99496     1.97658
             20  CL 2  Z      1.99160     1.96111
             21  CL 2  S      1.34651     0.63588
             22  CL 2  X      1.30844     1.23597
             23  CL 2  Y      1.30844     1.23597
             24  CL 2  Z      0.94570     0.85337
             25  CL 2  S      0.58930     0.48362
             26  CL 2  X      0.67402     0.75746
             27  CL 2  Y      0.67402     0.75746
             28  CL 2  Z      0.23615     0.43108
             29  CL 2 XX      0.00146     0.25651
             30  CL 2 YY      0.00146     0.25651
             31  CL 2 ZZ      0.03152     0.26309
             32  CL 2 XY      0.00002     0.00002
             33  CL 2 XZ      0.00350     0.00387
             34  CL 2 YZ      0.00350     0.00387
             35  H  3  S      0.52251     0.48828
             36  H  3  S      0.26440     0.33786
             37  H  4  S      0.52251     0.48677
             38  H  4  S      0.26440     0.33772
             39  H  5  S      0.52251     0.48677
             40  H  5  S      0.26440     0.33772

          ----- MULLIKEN ATOMIC OVERLAP POPULATIONS -----
          (OFF-DIAGONAL ELEMENTS NEED TO BE MULTIPLIED BY 2)

             1           2           3           4           5

    1    5.2059190
    2    0.1852963  17.0503291
    3    0.3817753  -0.0443016   0.5003446
    4    0.3817753  -0.0443016  -0.0254528   0.5003448
    5    0.3817753  -0.0443016  -0.0254528  -0.0254528   0.5003447

          TOTAL MULLIKEN AND LOWDIN ATOMIC POPULATIONS
       ATOM         MULL.POP.    CHARGE          LOW.POP.     CHARGE
    1 C             6.536541   -0.536541         6.456359   -0.456359
    2 CL           17.102721   -0.102721        17.068536   -0.068536
    3 H             0.786913    0.213087         0.826134    0.173866
    4 H             0.786913    0.213087         0.824486    0.175514
    5 H             0.786913    0.213087         0.824486    0.175514

          -------------------------------
          BOND ORDER AND VALENCE ANALYSIS     BOND ORDER THRESHOLD=0.050
          -------------------------------

                   BOND                       BOND                       BOND
  ATOM PAIR DIST  ORDER      ATOM PAIR DIST  ORDER      ATOM PAIR DIST  ORDER
    1   2  1.779  0.941        1   3  1.089  0.935        1   4  1.089  0.935
    1   5  1.089  0.935

                       TOTAL       BONDED        FREE
      ATOM            VALENCE     VALENCE     VALENCE
    1 C                 3.748       3.748       0.000
    2 CL                0.917       0.917      -0.000
    3 H                 0.909       0.909       0.000
    4 H                 0.909       0.909       0.000
    5 H                 0.909       0.909      -0.000

          -----------------------------------------
          ATOMIC SPIN DENSITY AT THE NUCLEUS (A.U.)
          -----------------------------------------
                            SPIN DENS    ALPHA DENS     BETA DENS
    1  C            6.0     0.0000000      59.00949      59.00949
    2  CL          17.0     0.0000000    1511.34500    1511.34500
    3  H            1.0     0.0000000       0.21023       0.21023
    4  H            1.0     0.0000000       0.21023       0.21023
    5  H            1.0     0.0000000       0.21023       0.21023

          ---------------------
          ELECTROSTATIC MOMENTS
          ---------------------

 POINT   1           X           Y           Z (BOHR)    CHARGE
[...]
   25  CL 2  S    0.000000   0.234875  -0.244996  -0.000000  -0.000000
   26  CL 2  X   -0.004573   0.000000   0.000000  -0.001168   0.080730
   27  CL 2  Y    0.000251   0.000000   0.000000  -0.080730  -0.001168
   28  CL 2  Z   -0.000000  -0.007905  -0.006550  -0.000000   0.000000
   29  CL 2 XX   -0.000000  -0.006651  -0.005476   0.000847   0.000012
   30  CL 2 YY    0.000000  -0.006651  -0.005476  -0.000847  -0.000012
   31  CL 2 ZZ    0.000000   0.032930   0.016453   0.000000   0.000000
   32  CL 2 XY    0.000005  -0.000000   0.000000   0.000014  -0.000978
   33  CL 2 XZ   -0.000338   0.000000  -0.000000   0.000319  -0.022080
   34  CL 2 YZ    0.000019  -0.000000  -0.000000   0.022080   0.000319
   35  H  3  S    0.000004   0.058760   0.134633  -0.252252  -0.003649
   36  H  3  S   -0.000031   0.002187   0.041615  -0.166543  -0.002409
   37  H  4  S   -0.000059   0.058760   0.134633   0.122966   0.220281
   38  H  4  S    0.000509   0.002187   0.041615   0.081185   0.145435
   39  H  5  S    0.000055   0.058760   0.134633   0.129287  -0.216632
   40  H  5  S   -0.000477   0.002187   0.041615   0.085358  -0.143026

                     11         12         13         14         15
                   -0.5458    -0.4348    -0.4348     0.1948     0.2576
                     A          A          A          A          A   
    1  C  1  S   -0.003532  -0.000000  -0.000000  -0.139103  -0.079355
    2  C  1  S   -0.009428   0.000000  -0.000000   0.142318   0.025902
    3  C  1  X   -0.000000   0.002011  -0.153813   0.000000  -0.000000
    4  C  1  Y   -0.000000   0.153813   0.002011  -0.000000  -0.000000
    5  C  1  Z    0.345856   0.000000   0.000000   0.254781  -0.303955
    6  C  1  S    0.084800  -0.000000   0.000000   1.974053   1.817895
    7  C  1  X   -0.000000   0.000857  -0.065575   0.000000  -0.000000
    8  C  1  Y   -0.000000   0.065574   0.000857  -0.000001  -0.000003
    9  C  1  Z    0.214297   0.000000   0.000000   0.699749  -1.036729
   10  C  1 XX   -0.014886  -0.010687  -0.000140  -0.003466  -0.018075
   11  C  1 YY   -0.014886   0.010687   0.000140  -0.003466  -0.018075
   12  C  1 ZZ    0.037191  -0.000000  -0.000000  -0.012251   0.010964
   13  C  1 XY    0.000000  -0.000161   0.012340   0.000000   0.000000
   14  C  1 XZ   -0.000000  -0.000314   0.024036   0.000000  -0.000000
   15  C  1 YZ   -0.000000  -0.024036  -0.000314   0.000000  -0.000000
   16  CL 2  S   -0.014760  -0.000000   0.000000  -0.016930   0.020817
   17  CL 2  S    0.071515   0.000000   0.000000   0.096239  -0.072891
   18  CL 2  X    0.000000   0.003496  -0.267373   0.000000  -0.000000
   19  CL 2  Y   -0.000000   0.267373   0.003496   0.000000  -0.000000
   20  CL 2  Z    0.223036   0.000000   0.000000  -0.126678   0.069712
   21  CL 2  S   -0.146492  -0.000000   0.000000  -0.129597   0.280458
   22  CL 2  X   -0.000000  -0.009076   0.694186   0.000000   0.000000
   23  CL 2  Y    0.000001  -0.694187  -0.009076  -0.000000   0.000000
   24  CL 2  Z   -0.567106  -0.000001  -0.000000   0.323142  -0.188010
   25  CL 2  S   -0.203641   0.000000  -0.000000  -0.821725   0.208179
   26  CL 2  X   -0.000000  -0.005404   0.413367  -0.000000  -0.000000
   27  CL 2  Y    0.000000  -0.413367  -0.005404  -0.000001   0.000001
   28  CL 2  Z   -0.187979  -0.000000   0.000000   1.020767  -0.447476
   29  CL 2 XX   -0.019001  -0.001102  -0.000014  -0.039573   0.028224
   30  CL 2 YY   -0.019001   0.001102   0.000014  -0.039574   0.028224
   31  CL 2 ZZ    0.066273   0.000000  -0.000000   0.103594  -0.014709
   32  CL 2 XY   -0.000000  -0.000017   0.001272  -0.000000  -0.000000
   33  CL 2 XZ    0.000000   0.000058  -0.004457  -0.000000   0.000000
   34  CL 2 YZ   -0.000000   0.004457   0.000058  -0.000000   0.000000
   35  H  3  S   -0.074442   0.119247   0.001559   0.000346  -0.016043
   36  H  3  S   -0.067603   0.136469   0.001784  -0.508319  -1.099421
   37  H  4  S   -0.074442  -0.058273  -0.104051   0.000346  -0.016043
   38  H  4  S   -0.067603  -0.066689  -0.119078  -0.508318  -1.099423
   39  H  5  S   -0.074442  -0.060974   0.102492   0.000346  -0.016043
   40  H  5  S   -0.067603  -0.069780   0.117294  -0.508318  -1.099424

                     16         17         18         19         20
                    0.2925     0.2925     0.5887     0.6268     0.6525
                     A          A          A          A          A   
    1  C  1  S   -0.000000  -0.000000   0.007209   0.019008   0.000000
    2  C  1  S    0.000000   0.000000   0.017277  -0.197555   0.000000
    3  C  1  X   -0.314624  -0.016529   0.000000  -0.000000  -0.143900
    4  C  1  Y   -0.016529   0.314625   0.000001   0.000001   0.007656
    5  C  1  Z    0.000000  -0.000000   0.241341   0.286423  -0.000000
    6  C  1  S   -0.000000   0.000001  -0.123029   0.608760  -0.000000
    7  C  1  X   -1.532049  -0.080486  -0.000000   0.000000   0.268456
    8  C  1  Y   -0.080486   1.532053  -0.000000  -0.000001  -0.014283
    9  C  1  Z    0.000000  -0.000002   0.306074  -0.239836   0.000000
   10  C  1 XX   -0.000676   0.012864  -0.002494  -0.060050  -0.001582
   11  C  1 YY    0.000676  -0.012864  -0.002494  -0.060050   0.001582
   12  C  1 ZZ   -0.000000   0.000000   0.042116   0.144752   0.000000
   13  C  1 XY   -0.014854  -0.000780  -0.000000  -0.000000   0.034337
   14  C  1 XZ   -0.011052  -0.000581   0.000000   0.000000   0.012174
   15  C  1 YZ   -0.000581   0.011052  -0.000000  -0.000000  -0.000648
   16  CL 2  S   -0.000000   0.000000   0.062792   0.010360  -0.000000
   17  CL 2  S    0.000000  -0.000000  -0.056768   0.023225   0.000000
   18  CL 2  X   -0.004794  -0.000252  -0.000000  -0.000000   0.291972
   19  CL 2  Y   -0.000252   0.004794  -0.000000  -0.000000  -0.015534
   20  CL 2  Z   -0.000000   0.000000  -0.115557   0.234243   0.000000
   21  CL 2  S   -0.000000  -0.000000   1.304084   0.282208  -0.000000
   22  CL 2  X   -0.000331  -0.000017   0.000000   0.000000  -1.134979
   23  CL 2  Y   -0.000017   0.000332   0.000001   0.000002   0.060385
   24  CL 2  Z    0.000000  -0.000000   0.394204  -0.968442  -0.000000
   25  CL 2  S   -0.000000   0.000002  -1.984066  -0.604442   0.000000
   26  CL 2  X    0.247908   0.013024   0.000000  -0.000000   1.156849
   27  CL 2  Y    0.013024  -0.247909  -0.000001  -0.000002  -0.061548
   28  CL 2  Z    0.000000  -0.000002   0.002564   1.363443   0.000000
   29  CL 2 XX   -0.001080   0.020555   0.062994  -0.053173  -0.000365
   30  CL 2 YY    0.001080  -0.020555   0.062994  -0.053173   0.000365
   31  CL 2 ZZ   -0.000000  -0.000000   0.265942   0.266056   0.000000
   32  CL 2 XY   -0.023735  -0.001247  -0.000000  -0.000000   0.007929
   33  CL 2 XZ    0.058520   0.003074   0.000000  -0.000000  -0.004628
   34  CL 2 YZ    0.003074  -0.058520  -0.000000  -0.000000   0.000246
   35  H  3  S    0.003830  -0.072911   0.028346  -0.107226   0.009245
   36  H  3  S    0.100668  -1.916200   0.253726   0.152684   0.007387
   37  H  4  S    0.061228   0.039772   0.028346  -0.107227  -0.155104
   38  H  4  S    1.609140   1.045279   0.253727   0.152685  -0.123939
   39  H  5  S   -0.065058   0.033138   0.028346  -0.107227   0.145860
   40  H  5  S   -1.709807   0.870919   0.253727   0.152685   0.116552

                     21         22         23
                    0.6525     0.7236     0.7236
                     A          A          A   
    1  C  1  S    0.000000   0.000000  -0.000000
    2  C  1  S    0.000001  -0.000000  -0.000001
    3  C  1  X    0.007656   0.693846  -0.000765
    4  C  1  Y    0.143898  -0.000765  -0.693846
    5  C  1  Z   -0.000001  -0.000000   0.000004
    6  C  1  S   -0.000001   0.000000   0.000001
    7  C  1  X   -0.014283  -1.440331   0.001587
    8  C  1  Y   -0.268455   0.001587   1.440337
    9  C  1  Z    0.000002   0.000001  -0.000008
   10  C  1 XX   -0.029737   0.000083   0.075693
   11  C  1 YY    0.029737  -0.000083  -0.075694
   12  C  1 ZZ   -0.000000   0.000000   0.000000
   13  C  1 XY   -0.001827  -0.087403   0.000096
   14  C  1 XZ   -0.000648  -0.066074   0.000073
   15  C  1 YZ   -0.012174   0.000073   0.066075
   16  CL 2  S   -0.000000   0.000000  -0.000000
   17  CL 2  S   -0.000000  -0.000000   0.000000
   18  CL 2  X   -0.015534   0.066589  -0.000073
   19  CL 2  Y   -0.291972  -0.000073  -0.066588
   20  CL 2  Z   -0.000000   0.000000  -0.000001
   21  CL 2  S   -0.000001   0.000000  -0.000001
   22  CL 2  X    0.060385  -0.290818   0.000320
   23  CL 2  Y    1.134980   0.000321   0.290815
   24  CL 2  Z    0.000001  -0.000000   0.000002
   25  CL 2  S    0.000001  -0.000001   0.000006
   26  CL 2  X   -0.061548   0.681635  -0.000751
   27  CL 2  Y   -1.156850  -0.000751  -0.681633
   28  CL 2  Z   -0.000001   0.000001  -0.000005
   29  CL 2 XX   -0.006867   0.000016   0.014443
   30  CL 2 YY    0.006867  -0.000016  -0.014444
   31  CL 2 ZZ   -0.000001  -0.000000   0.000001
   32  CL 2 XY   -0.000422  -0.016678   0.000018
   33  CL 2 XZ    0.000246   0.240858  -0.000265
   34  CL 2 YZ    0.004628  -0.000265  -0.240860
   35  H  3  S    0.173761  -0.000506  -0.459401
   36  H  3  S    0.138850  -0.000124  -0.112359
   37  H  4  S   -0.078874   0.398105   0.229260
   38  H  4  S   -0.063028   0.097362   0.056071
   39  H  5  S   -0.094886  -0.397599   0.230137
   40  H  5  S   -0.075823  -0.097237   0.056286

     ----------------------------------------------------------------
     PROPERTY VALUES FOR THE UHF   SELF-CONSISTENT FIELD WAVEFUNCTION
     ----------------------------------------------------------------

          -----------------
          ENERGY COMPONENTS
          -----------------

         WAVEFUNCTION NORMALIZATION =       1.0000000000

                ONE ELECTRON ENERGY =    -790.2365181307
                TWO ELECTRON ENERGY =     239.7241150061
           NUCLEAR REPULSION ENERGY =      51.4192505076
                                      ------------------
                       TOTAL ENERGY =    -499.0931526170

 ELECTRON-ELECTRON POTENTIAL ENERGY =     239.7241150061
  NUCLEUS-ELECTRON POTENTIAL ENERGY =   -1289.1352965657
   NUCLEUS-NUCLEUS POTENTIAL ENERGY =      51.4192505076
                                      ------------------
             TOTAL POTENTIAL ENERGY =    -997.9919310520
               TOTAL KINETIC ENERGY =     498.8987784350
                 VIRIAL RATIO (V/T) =       2.0003896064

          ---------------------------------------
          MULLIKEN AND LOWDIN POPULATION ANALYSES
          ---------------------------------------

     ATOMIC MULLIKEN POPULATION IN EACH MOLECULAR ORBITAL
        ALPHA ORBITALS

                      1          2          3          4          5

                  1.000000   1.000000   1.000000   1.000000   1.000000

    1            -0.000001   0.999030   0.000117  -0.000066  -0.000001
    2             1.000001   0.000241   0.999857   1.000047   0.999998
    3            -0.000000   0.000243   0.000009   0.000006   0.000002
    4            -0.000000   0.000243   0.000009   0.000006   0.000000
    5            -0.000000   0.000243   0.000009   0.000006   0.000001

                      6          7          8          9         10

                  1.000000   1.000000   1.000000   1.000000   1.000000

    1            -0.000001   0.274355   0.482109   0.543120   0.543119
    2             0.999998   0.687099   0.290536   0.101723   0.101724
    3             0.000000   0.012849   0.075785   0.236722   0.000050
    4             0.000002   0.012849   0.075785   0.056252   0.180519
    5             0.000001   0.012849   0.075785   0.062183   0.174588

                     11         12         13

                  1.000000   1.000000   1.000000

    1             0.339732   0.043150   0.043151
    2             0.595041   0.889195   0.889194
    3             0.021742   0.045095   0.000008
    4             0.021742   0.010769   0.034334
    5             0.021742   0.011790   0.033313

     ATOMIC MULLIKEN POPULATION IN EACH MOLECULAR ORBITAL
         BETA ORBITALS

                      1          2          3          4          5

                  1.000000   1.000000   1.000000   1.000000   1.000000

    1            -0.000001   0.999030   0.000117  -0.000066  -0.000001
    2             1.000001   0.000241   0.999857   1.000047   0.999998
    3            -0.000000   0.000243   0.000009   0.000006   0.000002
    4            -0.000000   0.000243   0.000009   0.000006   0.000000
    5            -0.000000   0.000243   0.000009   0.000006   0.000001

                      6          7          8          9         10

                  1.000000   1.000000   1.000000   1.000000   1.000000

    1            -0.000001   0.274355   0.482109   0.543120   0.543119
    2             0.999998   0.687099   0.290536   0.101723   0.101724
    3             0.000000   0.012849   0.075785   0.236722   0.000050
    4             0.000002   0.012849   0.075785   0.056252   0.180519
    5             0.000001   0.012849   0.075785   0.062183   0.174588

                     11         12         13

                  1.000000   1.000000   1.000000

    1             0.339732   0.043150   0.043151
    2             0.595041   0.889195   0.889194
    3             0.021742   0.045095   0.000008
    4             0.021742   0.010769   0.034334
    5             0.021742   0.011790   0.033313

     ATOMIC SPIN POPULATION (ALPHA MINUS BETA)
       ATOM         MULL.POP.                    LOW.POP.
    1 C             0.000000                     0.000000
    2 CL            0.000000                     0.000000
    3 H             0.000000                     0.000000
    4 H             0.000000                     0.000000
    5 H             0.000000                     0.000000


          ********* ALL ELECTRONS ********

               ----- POPULATIONS IN EACH AO -----
                             MULLIKEN      LOWDIN
              1  C  1  S      1.99659     1.98143
              2  C  1  S      0.63543     0.35957
              3  C  1  X      0.74865     0.67739
              4  C  1  Y      0.74865     0.67696
              5  C  1  Z      0.51595     0.47831
              6  C  1  S      0.70720     0.35032
              7  C  1  X      0.40474     0.50056
              8  C  1  Y      0.40474     0.49973
              9  C  1  Z      0.28049     0.40413
             10  C  1 XX      0.02458     0.16554
             11  C  1 YY      0.02458     0.16554
             12  C  1 ZZ      0.01603     0.15173
             13  C  1 XY      0.01031     0.01449
             14  C  1 XZ      0.00884     0.01517
             15  C  1 YZ      0.00884     0.01513
             16  CL 2  S      1.99889     1.99843
             17  CL 2  S      1.99828     1.98117
             18  CL 2  X      1.99496     1.97657
             19  CL 2  Y      1.99496     1.97657
             20  CL 2  Z      1.99161     1.96115
             21  CL 2  S      1.34640     0.63618
             22  CL 2  X      1.30774     1.23557
             23  CL 2  Y      1.30774     1.23556
             24  CL 2  Z      0.94611     0.85427
             25  CL 2  S      0.59010     0.48422
             26  CL 2  X      0.67572     0.75879
             27  CL 2  Y      0.67572     0.75879
             28  CL 2  Z      0.24029     0.43315
             29  CL 2 XX      0.00143     0.25663
             30  CL 2 YY      0.00143     0.25663
             31  CL 2 ZZ      0.03114     0.26295
             32  CL 2 XY      0.00002     0.00002
             33  CL 2 XZ      0.00340     0.00375
             34  CL 2 YZ      0.00340     0.00376
             35  H  3  S      0.52650     0.49107
             36  H  3  S      0.25852     0.33335
             37  H  4  S      0.52650     0.48950
             38  H  4  S      0.25852     0.33321
             39  H  5  S      0.52650     0.48950
             40  H  5  S      0.25852     0.33321

          ----- MULLIKEN ATOMIC OVERLAP POPULATIONS -----
          (OFF-DIAGONAL ELEMENTS NEED TO BE MULTIPLIED BY 2)

             1           2           3           4           5

    1    5.1990503
    2    0.1879208  17.0549906
    3    0.3828877  -0.0445341   0.4971869
    4    0.3828877  -0.0445342  -0.0252609   0.4971876
    5    0.3828877  -0.0445342  -0.0252609  -0.0252612   0.4971875

          TOTAL MULLIKEN AND LOWDIN ATOMIC POPULATIONS
       ATOM         MULL.POP.    CHARGE          LOW.POP.     CHARGE
    1 C             6.535634   -0.535634         6.455999   -0.455999
    2 CL           17.109309   -0.109309        17.074166   -0.074166
    3 H             0.785019    0.214981         0.824416    0.175584
    4 H             0.785019    0.214981         0.822710    0.177290
    5 H             0.785019    0.214981         0.822710    0.177290

          -------------------------------
          BOND ORDER AND VALENCE ANALYSIS     BOND ORDER THRESHOLD=0.050
          -------------------------------

                   BOND                       BOND                       BOND
  ATOM PAIR DIST  ORDER      ATOM PAIR DIST  ORDER      ATOM PAIR DIST  ORDER
    1   2  1.785  0.942        1   3  1.078  0.936        1   4  1.078  0.936
    1   5  1.078  0.936

                       TOTAL       BONDED        FREE
      ATOM            VALENCE     VALENCE     VALENCE
    1 C                 3.749       3.749      -0.000
    2 CL                0.915       0.915      -0.000
    3 H                 0.907       0.907      -0.000
    4 H                 0.907       0.907       0.000
    5 H                 0.907       0.907      -0.000

          -----------------------------------------
          ATOMIC SPIN DENSITY AT THE NUCLEUS (A.U.)
          -----------------------------------------
                            SPIN DENS    ALPHA DENS     BETA DENS
    1  C            6.0     0.0000000      59.01627      59.01627
    2  CL          17.0     0.0000000    1511.34589    1511.34589
    3  H            1.0     0.0000000       0.21292       0.21292
    4  H            1.0     0.0000000       0.21292       0.21292
    5  H            1.0     0.0000000       0.21292       0.21292

          ---------------------
          ELECTROSTATIC MOMENTS
          ---------------------

 POINT   1           X           Y           Z (BOHR)    CHARGE
                 0.000000    0.000000    0.176320       -0.00 (A.U.)
         DX          DY          DZ         /D/  (DEBYE)
    -0.000000    0.000000   -2.246202    2.246202
 ...... END OF PROPERTY EVALUATION ......
 STEP CPU TIME =     0.00 TOTAL CPU TIME =          0.4 (      0.0 MIN)
 TOTAL WALL CLOCK TIME=          0.4 SECONDS, CPU UTILIZATION IS    99.70%
  $VIB   
          IVIB=   0 IATOM=   0 ICOORD=   0 E=     -499.0931526170
 -3.920348709E-08 7.844879637E-07 1.116697631E-06 0.000000000E+00-8.777155797E-08
 -1.155722525E-05 0.000000000E+00-3.553772254E-06 3.531944849E-06-3.063177034E-06
  1.426523517E-06 3.453144027E-06 3.083611955E-06 1.430532773E-06 3.455437179E-06
 -4.200724968E-08 1.024634649E-07-2.246201544E+00
 ......END OF GEOMETRY SEARCH......
 STEP CPU TIME =     0.00 TOTAL CPU TIME =          0.4 (      0.0 MIN)
 TOTAL WALL CLOCK TIME=          0.4 SECONDS, CPU UTILIZATION IS    99.70%
               997261  WORDS OF DYNAMIC MEMORY USED
 EXECUTION OF GAMESS TERMINATED NORMALLY 19:56:10 20-OCT-2025    
----- accounting info -----
Files used on the parent node Macbooks-MacBook-Pro.local were:
-rw-r--r--  1 macbookpro  staff      385 Oct 20 19:56 /Users/macbookpro/local/gamess/scr/ch3cl_q0m1_uhf_631g_star.F05
-rw-r--r--  1 macbookpro  staff  2700240 Oct 20 19:56 /Users/macbookpro/local/gamess/scr/ch3cl_q0m1_uhf_631g_star.F08
-rw-r--r--  1 macbookpro  staff  2061360 Oct 20 19:56 /Users/macbookpro/local/gamess/scr/ch3cl_q0m1_uhf_631g_star.F10
-rw-r--r--  1 macbookpro  staff   183931 Oct 20 19:56 /Users/macbookpro/local/gamess/scr/ch3cl_q0m1_uhf_631g_star.dat
Mon Oct 20 19:56:11 +07 2025
0.390u 0.060s 0:00.46 97.8%	0+0k 0+0io 46pf+0w
