1 : ch4_q0m1_uhf_631g_star.inp
----- GAMESS execution script 'rungms' -----
This job is running on host Macbooks-MacBook-Pro.local
under operating system Darwin at Mon Oct 20 19:56:02 +07 2025
Available scratch disk space (Kbyte units) at beginning of the job is
Filesystem   1024-blocks      Used Available Capacity iused      ifree %iused  Mounted on
/dev/disk3s5   482797652 122167820 339925392    27% 1896254 3399253920    0%   /System/Volumes/Data
GAMESS temporary binary files will be written to /Users/macbookpro/local/gamess/scr
GAMESS supplementary output files will be written to /Users/macbookpro/local/gamess/scr
Copying input file /Users/macbookpro/sq2_data/ch4_q0m1_uhf_631g_star.inp to your run's scratch directory...
          *******************************************************
          *                                                     *
          *          GAMESS VERSION = 30 JUN 2023 (R1)          *
          *                                                     *
          *              doi.org/10.1063/5.0005188              *
          *                                                     *
          **************** 64 BIT LINUX VERSION *****************

  GAMESS HAS BEEN MADE POSSIBLE WITH IMPORTANT CONTRIBUTIONS FROM
  THE FOLLOWING INDIVIDUALS (IN ALPHABETICAL ORDER):

     IVANA ADAMOVIC, CHRISTINE AIKENS, TOMOKO AKAMA,
     MELISA ALKAN, YURI ALEXEEV, YURIKO AOKI, POOJA ARORA,
     TOSHIO ASADA, ANDREY ASADCHEV, KIM K. BALDRIDGE,
     PRADIPTA BANDYOPADHYAY, TAYLOR A. BARNES, MARIA BARYSZ,
     ROB BELL, JONATHAN BENTZ, COLLEEN BERTONI,
     JERRY A. BOATZ, BRETT BODE, KURT BRORSEN, KURT R. BRORSEN,
     LAIMUTIS BYTAUTAS, CALEB CARLIN, LAURA CARRINGTON,
     GALINA CHABAN, BENOIT CHAMPAGNE, WEI CHEN, MAHITO CHIBA,
     DAN CHIPMAN, CHEOL HO CHOI, TANNER CULPITT,
     DIPAYAN DATTA, PAUL DAY, ALBERT DEFUSCO,
     NUWAN DESILVA, J. EMILIANO DEUSTUA,
     TIM DUDLEY, MICHEL DUPUIS, STEVEN T. ELBERT,
     DMITRI FEDOROV, KATHERINE FERRERAS, MICHAEL FILATOV,
     ALEX FINDLATER,GRAHAM FLETCHER, MARK FREITAG,
     CHRISTIAN FRIEDL, DAVID GARMER, 
     IGOR S. GERASIMOV, KURT GLAESEMANN,
     MARK S. GORDON, JEFFREY R. GOUR, FENG LONG GU,
     EMILIE B. GUIDEZ, ANASTASIA GUNINA, SHARON HAMMES-SCHIFFER,
     MASATAKE HARUTA, KIMIHIKO HIRAO, YASUHIRO IKABATA,
     TZVETELIN IORDANOV, STEPHAN IRLE, KAZUYA ISHIMURA,
     JOE IVANIC, FRANK JENSEN, JAN H. JENSEN, VISVALDAS KAIRYS,
     MUNEAKI KAMIYA, MICHIO KATOUDA, NAOAKI KAWAKAMI, DAN KEMP,
     BERNARD KIRTMAN, KAZUO KITAURA, MARIUSZ KLOBUKOWSKI,
     MASATO KOBAYASHI, KONSTANTIN KOMAROV, PRAKASHAN KORAMBATH,
     JACEK KORCHOWIEC, SHIRO KOSEKI, KAROL KOWALSKI,
     JIMMY KROMANN, STANISLAW A. KUCHARSKI, HENRY KURTZ,
     SAROM SOK LEANG, SEUNGHOON LEE, HUI LI, SHUHUA LI, WEI LI,
     JESSE J. LUTZ, ALEKSANDR O. LYKHIN,
     ILIAS MAGOULAS, MARCIN MAKOWSKI,
     JOANI MATO, NIKITA MATSUNAGA, BENEDETTA MENNUCCI,
     GRANT MERRILL, NORIYUKI MINEZAWA, VLADIMIR MIRONOV,
     EISAKU MIYOSHI, JOHN A. MONTGOMERY JR., HIROTOSHI MORI,
     JONATHAN MULLIN, MONIKA MUSIAL, SHIGERU NAGASE,
     TAKESHI NAGATA, HIROMI NAKAI, TAKAHITO NAKAJIMA,
     YUYA NAKAJIMA, HARUYUKI NAKANO, HIROYA NAKATA, SEAN NEDD,
     HEATHER NETZLOFF, KIET A. NGUYEN, YOSHIO NISHIMOTO,
     BOSILJKA NJEGIC, RYAN OLSON, MIKE PAK, ROBERTO PEVERATI,
     BUU PHAM, PIOTR PIECUCH, ANNA POMOGAEVA, DAVID POOLE,
     SPENCER PRUITT, OLIVIER QUINET, LUKE ROSKOP,
     KLAUS RUEDENBERG, ANDREW SAND, TOSAPORN SATTASATHUCHANA,
     NOZOMI SAWADA, MICHAEL W. SCHMIDT, PATRICK E. SCHNEIDER,
     JUNJI SEINO, PRACHI SHARMA, JUN SHEN, JIM SHOEMAKER,
     YINAN SHU, DEJUN SI, JONATHAN SKONE, LYUDMILA SLIPCHENKO,
     TONY SMITH, JIE SONG, MARK SPACKMAN, CASPER STEINMANN,
     WALT STEVENS, PEIFENG SU, SHUJUN SU, CHET SWALINA,
     CHINAMI TAKASHIMA, TETSUYA TAKETSUGU, ZHEN TAO,
     NANDUN THELLAMUREGE, SEIKEN TOKURA, JACOPO TOMASI,
     TSUGUKI TOUMA, TAKAO TSUNEDA, HIROAKI UMEDA,
     JORGE LUIS GALVEZ VALLEJO, YALI WANG, SIMON WEBB,
     AARON WEST, THERESA L. WINDUS, MARTA WLOCH,
     PENG XU, KIYOSHI YAGI, SUSUMU YANAGISAWA, YANG YANG,
     SOOHAENG YOO, TAKESHI YOSHIKAWA, FEDERICO ZAHARIEV,
     TOBY ZENG

  WHO ARE SUPPORTED BY THEIR INSTITUTION/UNIVERSITY/COMPANY/GROUP
  (IN ALPHABETICAL ORDER):

     EP ANALYTICS,
     FACULTES UNIVERSITAIRES NOTRE-DAME DE LA PAIX,
     INSTITUTE FOR MOLECULAR SCIENCE, IOWA STATE UNIVERSITY,
     JACKSON STATE UNIVERSITY, JOHANNES KEPLER UNIVERSITY LINZ,
     KYUNGPOOK NATIONAL UNIVERSITY
     KYUSHU UNIVERSITY, MICHIGAN STATE UNIVERSITY,
     MIE UNIVERSITY, THE MOLECULAR SCIENCES SOFTWARE INSTITUTE,
     MOSCOW STATE UNIVERSITY,
     N. COPERNICUS UNIVERSITY, NAGOYA UNIVERSITY,
     NANJING UNIVERSITY, NAT. INST. OF ADVANCED INDUSTRIAL
     SCIENCE AND TECHNOLOGY, NATIONAL INST. OF STANDARDS AND
     TECHNOLOGY, NESMEYANOV INSTITUTE OF ORGANOELEMENT COMPOUNDS
     OF RUSSIAN ACADEMY OF SCIENCES, OSAKA PREFECTURE UNIVERSITY,
     PENNSYLVANIA STATE UNIVERSITY, TOKYO INSTITUTE OF TECHNOLOGY,
     UNIVERSITY OF AARHUS, UNIVERSITY OF ALBERTA,
     UNIVERSITY OF CALIFORNIA AT SANTA BARBARA,
     UNIVERSITY OF COPENHAGEN, UNIVERSITY OF IOWA,
     UNIVERSITY OF MEMPHIS, UNIVERSITY OF MINNESOTA,
     UNIVERSITY OF NEBRASKA, UNIVERSITY OF NEW ENGLAND,
     UNIVERSITY OF NOTRE DAME, UNIVERSITY OF PISA,
     UNIVERSITY OF SILESIA, UNIVERSITY OF TOKYO,
     UNIVERSITY OF ZURICH, WASEDA UNIVERSITY,
     YALE UNIVERSITY

  GAMESS SOFTWARE MANAGEMENT TEAM FOR THIS RELEASE:
     MARK S. GORDON (TEAM LEAD),
     BRETT BODE (SENIOR ADVISOR),
     GIUSEPPE BARCA,
     COLLEEN BERTONI,
     KRISTOPHER KEIPERT (ADVISOR),
     SAROM S. LEANG (DEVELOPMENT LEAD),
     BUU PHAM,
     JACKSON HAYES (WEBSITE ADMINISTRATOR),
     PENG XU

 EXECUTION OF GAMESS BEGUN 19:56:02 20-OCT-2025    

            ECHO OF THE FIRST FEW INPUT CARDS -
 INPUT CARD> $CONTRL SCFTYP=UHF ICHARG=0 MULT=1                                             
 INPUT CARD> RUNTYP=OPTIMIZE                                                                
 INPUT CARD> $END                                                                           
 INPUT CARD> $BASIS GBASIS=N31 NGAUSS=6 NDFUNC=1 $END                                       
 INPUT CARD> $DATA                                                                          
 INPUT CARD> ... this is comment ...                                                        
 INPUT CARD> C1                                                                             
 INPUT CARD> C     6   0.00000000   0.00000000  -0.00000000                                 
 INPUT CARD> H     1   0.62933687   0.62933687   0.62933686                                 
 INPUT CARD> H     1  -0.62933687  -0.62933687   0.62933686                                 
 INPUT CARD> H     1   0.62933687  -0.62933687  -0.62933686                                 
 INPUT CARD> H     1  -0.62933687   0.62933687  -0.62933686                                 
 INPUT CARD> $END                                                                           
 INPUT CARD>                                                                                
      1000000 WORDS OF MEMORY AVAILABLE

     BASIS OPTIONS
     -------------
     GBASIS=N31          IGAUSS=       6      POLAR=POPN31  
     NDFUNC=       1     NFFUNC=       0     DIFFSP=       F
     NPFUNC=       0      DIFFS=       F     BASNAM=        


     RUN TITLE
     ---------
  ... this is comment ...                                                        

 THE POINT GROUP OF THE MOLECULE IS C1      
 THE ORDER OF THE PRINCIPAL AXIS IS     0

 ATOM      ATOMIC                      COORDINATES (BOHR)
           CHARGE         X                   Y                   Z
 C           6.0     0.0000000000        0.0000000000       -0.0000000000
 H           1.0     1.1892742383        1.1892742383        1.1892742194
 H           1.0    -1.1892742383       -1.1892742383        1.1892742194
 H           1.0     1.1892742383       -1.1892742383       -1.1892742194
 H           1.0    -1.1892742383        1.1892742383       -1.1892742194

          INTERNUCLEAR DISTANCES (ANGS.)
          ------------------------------

                1 C          2 H          3 H          4 H          5 H     

   1 C       0.0000000    1.0900434 *  1.0900434 *  1.0900434 *  1.0900434 *
   2 H       1.0900434 *  0.0000000    1.7800335 *  1.7800335 *  1.7800335 *
   3 H       1.0900434 *  1.7800335 *  0.0000000    1.7800335 *  1.7800335 *
   4 H       1.0900434 *  1.7800335 *  1.7800335 *  0.0000000    1.7800335 *
   5 H       1.0900434 *  1.7800335 *  1.7800335 *  1.7800335 *  0.0000000  

  * ... LESS THAN  3.000


     ATOMIC BASIS SET
     ----------------
 THE CONTRACTED PRIMITIVE FUNCTIONS HAVE BEEN UNNORMALIZED
 THE CONTRACTED BASIS FUNCTIONS ARE NOW NORMALIZED TO UNITY

  SHELL TYPE  PRIMITIVE        EXPONENT          CONTRACTION COEFFICIENT(S)

 C         

      1   S       1          3047.5248800    0.001834737132
      1   S       2           457.3695180    0.014037322813
      1   S       3           103.9486850    0.068842622264
      1   S       4            29.2101553    0.232184443216
      1   S       5             9.2866630    0.467941348435
      1   S       6             3.1639270    0.362311985337

      2   L       7             7.8682723   -0.119332419775    0.068999066591
      2   L       8             1.8812885   -0.160854151696    0.316423960957
      2   L       9             0.5442493    1.143456437840    0.744308290898

      3   L      10             0.1687145    1.000000000000    1.000000000000

      4   D      11             0.8000000    1.000000000000

 H         

      5   S      12            18.7311370    0.033494604338
      5   S      13             2.8253944    0.234726953484
      5   S      14             0.6401217    0.813757326146

      6   S      15             0.1612778    1.000000000000

 H         

      7   S      16            18.7311370    0.033494604338
      7   S      17             2.8253944    0.234726953484
      7   S      18             0.6401217    0.813757326146

      8   S      19             0.1612778    1.000000000000

 H         

      9   S      20            18.7311370    0.033494604338
      9   S      21             2.8253944    0.234726953484
      9   S      22             0.6401217    0.813757326146

     10   S      23             0.1612778    1.000000000000

 H         

     11   S      24            18.7311370    0.033494604338
     11   S      25             2.8253944    0.234726953484
     11   S      26             0.6401217    0.813757326146

     12   S      27             0.1612778    1.000000000000

 TOTAL NUMBER OF BASIS SET SHELLS             =   12
 NUMBER OF CARTESIAN GAUSSIAN BASIS FUNCTIONS =   23
 NUMBER OF ELECTRONS                          =   10
 CHARGE OF MOLECULE                           =    0
 SPIN MULTIPLICITY                            =    1
 NUMBER OF OCCUPIED ORBITALS (ALPHA)          =    5
 NUMBER OF OCCUPIED ORBITALS (BETA )          =    5
 TOTAL NUMBER OF ATOMS                        =    5
 THE NUCLEAR REPULSION ENERGY IS       13.4348549515

     $CONTRL OPTIONS
     ---------------
 SCFTYP=UHF          RUNTYP=OPTIMIZE     EXETYP=RUN     
 MPLEVL=       0     CITYP =NONE         CCTYP =NONE         VBTYP =NONE    
 DFTTYP=NONE         TDDFT =NONE    
 MULT  =       1     ICHARG=       0     NZVAR =       0     COORD =UNIQUE  
 PP    =NONE         RELWFN=NONE         LOCAL =NONE         NUMGRD=       F
 ISPHER=      -1     NOSYM =       0     MAXIT =      30     UNITS =ANGS    
 PLTORB=       F     MOLPLT=       F     AIMPAC=       F     FRIEND=        
 NPRINT=       7     IREST =       0     GEOM  =INPUT   
 NORMF =       0     NORMP =       0     ITOL  =      20     ICUT  =       9
 INTTYP=BEST         GRDTYP=BEST         QMTTOL= 1.0E-06

     $SYSTEM OPTIONS
     ---------------
  REPLICATED MEMORY=     1000000 WORDS (ON EVERY NODE).
 DISTRIBUTED MEMDDI=           0 MILLION WORDS IN AGGREGATE,
 MEMDDI DISTRIBUTED OVER   1 PROCESSORS IS           0 WORDS/PROCESSOR.
 TOTAL MEMORY REQUESTED ON EACH PROCESSOR=     1000000 WORDS.
 TIMLIM=      525600.00 MINUTES, OR     365.0 DAYS.
 PARALL= F  BALTYP=  DLB     KDIAG=    0  COREFL= F
 MXSEQ2=     300 MXSEQ3=     150  mem10=         0  mem22=         0

          ----------------
          PROPERTIES INPUT
          ----------------

     MOMENTS            FIELD           POTENTIAL          DENSITY
 IEMOM =       1   IEFLD =       0   IEPOT =       0   IEDEN =       0
 WHERE =COMASS     WHERE =NUCLEI     WHERE =NUCLEI     WHERE =NUCLEI  
 OUTPUT=BOTH       OUTPUT=BOTH       OUTPUT=BOTH       OUTPUT=BOTH    
 IEMINT=       0   IEFINT=       0                     IEDINT=       0
                                                       MORB  =       0
          EXTRAPOLATION IN EFFECT
          SOSCF IN EFFECT
          DIIS or SOSCF will be reset if energy rises
 ORBITAL PRINTING OPTION: NPREO=     1    23     2     1

     -------------------------------
     INTEGRAL TRANSFORMATION OPTIONS
     -------------------------------
     NWORD  =            0
     CUTTRF = 1.0E-09     MPTRAN =       0
     DIRTRF =       F     AOINTS =DUP     

          ----------------------
          INTEGRAL INPUT OPTIONS
          ----------------------
 NOPK  =       1 NORDER=       0 SCHWRZ=       F

     ------------------------------------------
     THE POINT GROUP IS C1 , NAXIS= 0, ORDER= 1
     ------------------------------------------

     DIMENSIONS OF THE SYMMETRY SUBSPACES ARE
 A   =   23

 ..... DONE SETTING UP THE RUN .....
 STEP CPU TIME =     0.00 TOTAL CPU TIME =          0.0 (      0.0 MIN)
 TOTAL WALL CLOCK TIME=          0.0 SECONDS, CPU UTILIZATION IS    97.74%


          -----------------------------
          STATIONARY POINT LOCATION RUN
          -----------------------------

 OBTAINING INITIAL HESSIAN, HESS=GUESS   
 CARTESIAN COORDINATE OPTIMIZATION USING BADGER'S RULE FORCE CONSTANT GUESS

          PARAMETERS CONTROLLING GEOMETRY SEARCH ARE
          METHOD =QA                  UPHESS =BFGS    
          NNEG   =         0          NFRZ   =         0
          NSTEP  =        50          IFOLOW =         1
          HESS   =GUESS               RESTAR =         F
          IHREP  =         0          HSSEND =         F
          NPRT   =         0          NPUN   =         0
          OPTTOL = 1.000E-04          RMIN   = 1.500E-03
          RMAX   = 1.000E-01          RLIM   = 7.000E-02
          DXMAX  = 3.000E-01          PURIFY =         F
          MOVIE  =         F          TRUPD  =         T
          TRMAX  = 5.000E-01          TRMIN  = 5.000E-02
          ITBMAT =         5          STPT   =         F
          STSTEP = 1.000E-02          PROJCT=          T

 BEGINNING GEOMETRY SEARCH POINT NSERCH=   0 ...

 COORDINATES OF ALL ATOMS ARE (ANGS)
   ATOM   CHARGE       X              Y              Z
 ------------------------------------------------------------
 C           6.0   0.0000000000   0.0000000000  -0.0000000000
 H           1.0   0.6293368700   0.6293368700   0.6293368600
 H           1.0  -0.6293368700  -0.6293368700   0.6293368600
 H           1.0   0.6293368700  -0.6293368700  -0.6293368600
 H           1.0  -0.6293368700   0.6293368700  -0.6293368600

          ********************
          1 ELECTRON INTEGRALS
          ********************
 ...... END OF ONE-ELECTRON INTEGRALS ......
 STEP CPU TIME =     0.00 TOTAL CPU TIME =          0.0 (      0.0 MIN)
 TOTAL WALL CLOCK TIME=          0.0 SECONDS, CPU UTILIZATION IS    97.93%

          -------------
          GUESS OPTIONS
          -------------
          GUESS =HUCKEL            NORB  =       0          NORDER=       0
          MIX   =       F          PRTMO =       F          PUNMO =       F
          TOLZ  = 1.0E-08          TOLE  = 1.0E-05
          SYMDEN=       F          PURIFY=       F

 INITIAL GUESS ORBITALS GENERATED BY HUCKEL   ROUTINE.
 HUCKEL GUESS REQUIRES      7748 WORDS.

 SYMMETRIES FOR INITIAL GUESS ORBITALS FOLLOW.  ALPHA SET(S).
     5 ORBITALS ARE OCCUPIED (    1 CORE ORBITALS).
     2=A        3=A        4=A        5=A        6=A        7=A        8=A   
     9=A       10=A       11=A       12=A       13=A       14=A       15=A   

 SYMMETRIES FOR INITIAL GUESS ORBITALS FOLLOW.   BETA SET(S).
     5 ORBITALS ARE OCCUPIED (    1 CORE ORBITALS).
     2=A        3=A        4=A        5=A        6=A        7=A        8=A   
     9=A       10=A       11=A       12=A       13=A       14=A       15=A   
 ...... END OF INITIAL ORBITAL SELECTION ......
 STEP CPU TIME =     0.00 TOTAL CPU TIME =          0.0 (      0.0 MIN)
 TOTAL WALL CLOCK TIME=          0.0 SECONDS, CPU UTILIZATION IS    97.93%

                    ----------------------
                    AO INTEGRAL TECHNOLOGY
                    ----------------------
     S,P,L SHELL ROTATED AXIS INTEGRALS, REPROGRAMMED BY
        KAZUYA ISHIMURA (IMS) AND JOSE SIERRA (SYNSTAR).
     S,P,D,L SHELL ROTATED AXIS INTEGRALS PROGRAMMED BY
        KAZUYA ISHIMURA (INSTITUTE FOR MOLECULAR SCIENCE).
     S,P,D,F,G SHELL TO TOTAL QUARTET ANGULAR MOMENTUM SUM 5,
        ERIC PROGRAM BY GRAHAM FLETCHER (ELORET AND NASA ADVANCED
        SUPERCOMPUTING DIVISION, AMES RESEARCH CENTER).
     S,P,D,F,G,L SHELL GENERAL RYS QUADRATURE PROGRAMMED BY
        MICHEL DUPUIS (PACIFIC NORTHWEST NATIONAL LABORATORY).

          --------------------
          2 ELECTRON INTEGRALS
          --------------------

 THE -PK- OPTION IS OFF, THE INTEGRALS ARE NOT IN SUPERMATRIX FORM.
 STORING   15000 INTEGRALS/RECORD ON DISK, USING 12 BYTES/INTEGRAL.
 TWO ELECTRON INTEGRAL EVALUATION REQUIRES   90474 WORDS OF MEMORY.
 II,JST,KST,LST =  1  1  1  1 NREC =         1 INTLOC =    1
 II,JST,KST,LST =  2  1  1  1 NREC =         1 INTLOC =    2
 II,JST,KST,LST =  3  1  1  1 NREC =         1 INTLOC =   34
 II,JST,KST,LST =  4  1  1  1 NREC =         1 INTLOC =  214
 II,JST,KST,LST =  5  1  1  1 NREC =         1 INTLOC = 1189
 II,JST,KST,LST =  6  1  1  1 NREC =         1 INTLOC = 3245
 II,JST,KST,LST =  7  1  1  1 NREC =         1 INTLOC = 5710
 II,JST,KST,LST =  8  1  1  1 NREC =         1 INTLOC = 8581
 II,JST,KST,LST =  9  1  1  1 NREC =         1 INTLOC =11949
 II,JST,KST,LST = 10  1  1  1 NREC =         2 INTLOC =  851
 II,JST,KST,LST = 11  1  1  1 NREC =         2 INTLOC = 5350
 II,JST,KST,LST = 12  1  1  1 NREC =         2 INTLOC =10523
 TOTAL NUMBER OF NONZERO TWO-ELECTRON INTEGRALS =               31404
          3 INTEGRAL RECORDS WERE STORED ON DISK FILE  8.
  ...... END OF TWO-ELECTRON INTEGRALS .....
 STEP CPU TIME =     0.01 TOTAL CPU TIME =          0.0 (      0.0 MIN)
 TOTAL WALL CLOCK TIME=          0.0 SECONDS, CPU UTILIZATION IS    99.14%

          ---------------------------
                  UHF SCF CALCULATION
          ---------------------------

     NUCLEAR ENERGY =        13.4348549515
     MAXIT = 30     NPUNCH=  2     MULT=  1
     EXTRAP=T  DAMP=F  SHIFT=F  RSTRCT=F  DIIS=F  SOSCF=T
     DENSITY MATRIX CONV=  1.00E-05
     SOSCF WILL OPTIMIZE      90 ALPHA AND      90 BETA ROTATION ANGLES.
     SOGTOL= 2.500E-01
     MEMORY REQUIRED FOR UHF/ROHF ITERS=     36918 WORDS.

 ITER EX      TOTAL ENERGY        E CHANGE  DENSITY CHANGE    ORB. GRAD 
   1  0      -40.1094020020   -40.1094020020   0.122769426   0.000000000
          ---------------START SECOND ORDER SCF---------------
   2  1      -40.1905577677    -0.0811557657   0.042518097   0.019217450
   3  2      -40.1944841386    -0.0039263708   0.015956553   0.010993855
   4  3      -40.1950451264    -0.0005609878   0.003038411   0.001441563
   5  4      -40.1950592457    -0.0000141193   0.000459565   0.000169107
   6  5      -40.1950596484    -0.0000004026   0.000137865   0.000042949
   7  6      -40.1950596599    -0.0000000116   0.000024720   0.000008422
   8  7      -40.1950596602    -0.0000000003   0.000001591   0.000001217
   9  8      -40.1950596602    -0.0000000000   0.000000153   0.000000105

          -----------------
          DENSITY CONVERGED
          -----------------
     TIME TO FORM FOCK OPERATORS=       0.0 SECONDS (       0.0 SEC/ITER)
     TIME TO SOLVE SCF EQUATIONS=       0.0 SECONDS (       0.0 SEC/ITER)

 FINAL UHF ENERGY IS      -40.1950596602 AFTER   9 ITERATIONS

          --------------------
          SPIN SZ   =    0.000
          S-SQUARED =   -0.000
          --------------------

  ----- ALPHA SET ----- 

          ------------
          EIGENVECTORS
          ------------

                      1          2          3          4          5
                  -11.2081    -0.9419    -0.5445    -0.5445    -0.5445
                     A          A          A          A          A   
    1  C  1  S    0.995638  -0.193886  -0.000000  -0.000000  -0.000000
    2  C  1  S    0.028375   0.358346   0.000000   0.000000   0.000000
    3  C  1  X   -0.000000  -0.000000   0.401200   0.159439   0.052502
    4  C  1  Y    0.000000  -0.000000  -0.163110   0.402419   0.024357
    5  C  1  Z    0.000000  -0.000000  -0.039651  -0.042161   0.431033
    6  C  1  S   -0.013216   0.365457   0.000000   0.000000   0.000000
    7  C  1  X    0.000000  -0.000000   0.211844   0.084188   0.027722
    8  C  1  Y    0.000000  -0.000000  -0.086126   0.212487   0.012861
    9  C  1  Z    0.000000   0.000000  -0.020937  -0.022262   0.227596
   10  C  1 XX   -0.002051   0.010150  -0.000000  -0.000000  -0.000000
   11  C  1 YY   -0.002051   0.010150   0.000000   0.000000   0.000000
   12  C  1 ZZ   -0.002051   0.010150   0.000000   0.000000   0.000000
   13  C  1 XY    0.000000   0.000000  -0.003281  -0.003489   0.035668
   14  C  1 XZ   -0.000000  -0.000000  -0.013497   0.033300   0.002016
   15  C  1 YZ    0.000000  -0.000000   0.033199   0.013194   0.004345
   16  H  2  S    0.000043   0.134045   0.076823   0.201195   0.196624
   17  H  2  S    0.002448   0.037935   0.063758   0.166976   0.163183
   18  H  3  S    0.000043   0.134045  -0.107524  -0.233838   0.137114
   19  H  3  S    0.002448   0.037935  -0.089237  -0.194068   0.113794
   20  H  4  S    0.000043   0.134045   0.233817  -0.077745  -0.155973
   21  H  4  S    0.002448   0.037935   0.194050  -0.064522  -0.129446
   22  H  5  S    0.000043   0.134045  -0.203116   0.110389  -0.177765
   23  H  5  S    0.002448   0.037935  -0.168571   0.091614  -0.147532

                      6          7          8          9         10
                    0.2558     0.3260     0.3260     0.3260     0.7305
                     A          A          A          A          A   
    1  C  1  S   -0.157370   0.000000  -0.000000   0.000000  -0.000000
    2  C  1  S    0.107181  -0.000000   0.000000  -0.000000   0.000000
    3  C  1  X   -0.000000  -0.034114   0.249454  -0.160834   0.105445
    4  C  1  Y   -0.000000  -0.037662  -0.164222  -0.246721  -0.029788
    5  C  1  Z   -0.000000   0.294408   0.007897  -0.050198  -0.725569
    6  C  1  S    2.788491  -0.000000   0.000000  -0.000000   0.000000
    7  C  1  X   -0.000000  -0.170527   1.246956  -0.803968  -0.194235
    8  C  1  Y   -0.000000  -0.188262  -0.820906  -1.233295   0.054870
    9  C  1  Z   -0.000000   1.471673   0.039475  -0.250926   1.336531
   10  C  1 XX   -0.012529   0.000000  -0.000000   0.000000   0.000000
   11  C  1 YY   -0.012529  -0.000000   0.000000  -0.000000  -0.000000
   12  C  1 ZZ   -0.012529  -0.000000  -0.000000  -0.000000  -0.000000
   13  C  1 XY   -0.000000  -0.014873  -0.000399   0.002536  -0.102513
   14  C  1 XZ   -0.000000   0.001903   0.008296   0.012464  -0.004209
   15  C  1 YZ    0.000000   0.001723  -0.012602   0.008125   0.014898
   16  H  2  S    0.003878  -0.033390  -0.013967   0.068653  -0.275650
   17  H  2  S   -1.041009  -0.860507  -0.359955   1.769280  -0.044371
   18  H  3  S    0.003878  -0.054920   0.011599  -0.053596  -0.339829
   19  H  3  S   -1.041009  -1.415356   0.298909  -1.381236  -0.054701
   20  H  4  S    0.003878   0.043623  -0.060858  -0.020410   0.365096
   21  H  4  S   -1.041009   1.124218  -1.568395  -0.525987   0.058769
   22  H  5  S    0.003878   0.044687   0.063227   0.005353   0.250382
   23  H  5  S   -1.041009   1.151645   1.629441   0.137943   0.040303

                     11         12         13         14         15
                    0.7305     0.7305     1.1786     1.1786     1.1786
                     A          A          A          A          A   
    1  C  1  S    0.000000   0.000000  -0.000000  -0.000000   0.000000
    2  C  1  S    0.000000   0.000000   0.000000   0.000000  -0.000000
    3  C  1  X   -0.137736  -0.712999   0.058537  -0.686310   0.599747
    4  C  1  Y   -0.720690   0.134816   0.060254   0.602582   0.683673
    5  C  1  Z    0.009570  -0.109153  -0.909443  -0.004252   0.083899
    6  C  1  S   -0.000000  -0.000000  -0.000000  -0.000000   0.000000
    7  C  1  X    0.253715   1.313375  -0.076826   0.900738  -0.787130
    8  C  1  Y    1.327543  -0.248338  -0.079079  -0.790850  -0.897277
    9  C  1  Z   -0.017629   0.201065   1.193586   0.005580  -0.110112
   10  C  1 XX   -0.000000   0.000000  -0.000000   0.000000  -0.000000
   11  C  1 YY    0.000000   0.000000   0.000000   0.000000  -0.000000
   12  C  1 ZZ    0.000000   0.000000   0.000000   0.000000  -0.000000
   13  C  1 XY    0.001352  -0.015422   0.217125   0.001015  -0.020030
   14  C  1 XZ   -0.101824   0.019048  -0.014385  -0.143864  -0.163224
   15  C  1 YZ   -0.019460  -0.100737  -0.013975   0.163853  -0.143187
   16  H  2  S   -0.360029  -0.291523   0.427938   0.047619  -0.740056
   17  H  2  S   -0.057953  -0.046926  -0.792489  -0.088184   1.370495
   18  H  3  S    0.368148   0.198932   0.556528  -0.043016   0.649236
   19  H  3  S    0.059260   0.032022  -1.030623   0.079661  -1.202308
   20  H  4  S    0.243192  -0.313292  -0.491303   0.695306   0.090835
   21  H  4  S    0.039146  -0.050430   0.909835  -1.287624  -0.168215
   22  H  5  S   -0.251310   0.405884  -0.493162  -0.699909  -0.000015
   23  H  5  S   -0.040453   0.065334   0.913277   1.296148   0.000027

                     16         17         18         19         20
                    1.2413     1.3125     1.9420     1.9420     2.5825
                     A          A          A          A          A   
    1  C  1  S    0.081297  -0.121147   0.000000   0.000000   0.000000
    2  C  1  S   -1.135731  -1.856673   0.000000   0.000000  -0.000000
    3  C  1  X   -0.000000  -0.000000  -0.000000  -0.000000  -0.100333
    4  C  1  Y   -0.000000   0.000000   0.000000  -0.000000   0.138343
    5  C  1  Z   -0.000000  -0.000000   0.000000   0.000000  -0.005151
    6  C  1  S    1.940826   5.191181   0.000000  -0.000000  -0.000000
    7  C  1  X    0.000000   0.000000   0.000000   0.000000  -0.241880
    8  C  1  Y    0.000000  -0.000000  -0.000000  -0.000000   0.333514
    9  C  1  Z    0.000000   0.000000  -0.000000  -0.000000  -0.012417
   10  C  1 XX   -0.059662  -0.129734  -0.865858  -0.500290   0.000000
   11  C  1 YY   -0.059662  -0.129734   0.866193  -0.499710  -0.000000
   12  C  1 ZZ   -0.059662  -0.129734  -0.000335   1.000000  -0.000000
   13  C  1 XY    0.000000  -0.000000  -0.000000  -0.000000  -0.034008
   14  C  1 XZ    0.000000  -0.000000   0.000000   0.000000   0.913390
   15  C  1 YZ    0.000000  -0.000000   0.000000  -0.000000  -0.662433
   16  H  2  S    0.592759  -0.399796   0.000000   0.000000  -0.093566
   17  H  2  S   -0.668575  -0.922918   0.000000   0.000000   0.011640
   18  H  3  S    0.592759  -0.399796  -0.000000   0.000000   0.122899
   19  H  3  S   -0.668575  -0.922918   0.000000   0.000000  -0.015289
   20  H  4  S    0.592759  -0.399796   0.000000   0.000000   0.664953
   21  H  4  S   -0.668575  -0.922918  -0.000000   0.000000  -0.082722
   22  H  5  S    0.592759  -0.399796  -0.000000   0.000000  -0.694286
   23  H  5  S   -0.668575  -0.922918   0.000000   0.000000   0.086372

                     21         22         23
                    2.5825     2.5825     4.6068
                     A          A          A   
    1  C  1  S   -0.000000   0.000000  -0.485123
    2  C  1  S    0.000000   0.000000   2.969946
    3  C  1  X    0.138359   0.004702   0.000000
    4  C  1  Y    0.099990   0.009763  -0.000000
    5  C  1  Z   -0.009534   0.170630   0.000000
    6  C  1  S    0.000000  -0.000000   2.387438
    7  C  1  X    0.333553   0.011335  -0.000000
    8  C  1  Y    0.241052   0.023536   0.000000
    9  C  1  Z   -0.022984   0.411351  -0.000000
   10  C  1 XX    0.000000  -0.000000  -1.878819
   11  C  1 YY   -0.000000   0.000000  -1.878819
   12  C  1 ZZ   -0.000000   0.000000  -1.878819
   13  C  1 XY   -0.062945   1.126559   0.000000
   14  C  1 XZ    0.660166   0.064459  -0.000000
   15  C  1 YZ    0.913495   0.031044  -0.000000
   16  H  2  S   -0.651540  -0.527050   0.128724
   17  H  2  S    0.081054   0.065567  -0.482881
   18  H  3  S    0.705834  -0.444673   0.128724
   19  H  3  S   -0.087808   0.055319  -0.482881
   20  H  4  S   -0.136403   0.500273   0.128724
   21  H  4  S    0.016969  -0.062236  -0.482881
   22  H  5  S    0.082109   0.471450   0.128724
   23  H  5  S   -0.010215  -0.058650  -0.482881

  ----- BETA SET ----- 

          ------------
          EIGENVECTORS
          ------------

                      1          2          3          4          5
                  -11.2081    -0.9419    -0.5445    -0.5445    -0.5445
                     A          A          A          A          A   
    1  C  1  S    0.995638  -0.193886  -0.000000  -0.000000  -0.000000
    2  C  1  S    0.028375   0.358346   0.000000   0.000000   0.000000
    3  C  1  X   -0.000000  -0.000000   0.401201   0.159438   0.052502
    4  C  1  Y    0.000000  -0.000000  -0.163110   0.402419   0.024357
    5  C  1  Z    0.000000  -0.000000  -0.039651  -0.042161   0.431033
    6  C  1  S   -0.013216   0.365457   0.000000   0.000000   0.000000
    7  C  1  X    0.000000  -0.000000   0.211844   0.084187   0.027722
    8  C  1  Y    0.000000  -0.000000  -0.086126   0.212487   0.012861
    9  C  1  Z    0.000000   0.000000  -0.020937  -0.022262   0.227596
   10  C  1 XX   -0.002051   0.010150  -0.000000  -0.000000  -0.000000
   11  C  1 YY   -0.002051   0.010150   0.000000   0.000000   0.000000
   12  C  1 ZZ   -0.002051   0.010150   0.000000   0.000000   0.000000
   13  C  1 XY    0.000000   0.000000  -0.003281  -0.003489   0.035668
   14  C  1 XZ   -0.000000  -0.000000  -0.013497   0.033300   0.002016
   15  C  1 YZ    0.000000  -0.000000   0.033199   0.013194   0.004345
   16  H  2  S    0.000043   0.134045   0.076824   0.201194   0.196624
   17  H  2  S    0.002448   0.037935   0.063758   0.166976   0.163183
   18  H  3  S    0.000043   0.134045  -0.107524  -0.233838   0.137114
   19  H  3  S    0.002448   0.037935  -0.089237  -0.194068   0.113794
   20  H  4  S    0.000043   0.134045   0.233817  -0.077745  -0.155973
   21  H  4  S    0.002448   0.037935   0.194050  -0.064523  -0.129446
   22  H  5  S    0.000043   0.134045  -0.203116   0.110389  -0.177765
   23  H  5  S    0.002448   0.037935  -0.168571   0.091615  -0.147532

                      6          7          8          9         10
                    0.2558     0.3260     0.3260     0.3260     0.7305
                     A          A          A          A          A   
    1  C  1  S   -0.157370   0.000000  -0.000000   0.000000  -0.000000
    2  C  1  S    0.107181  -0.000000   0.000000  -0.000000   0.000000
    3  C  1  X   -0.000000  -0.034114   0.249335  -0.161017   0.105445
    4  C  1  Y   -0.000000  -0.037662  -0.164403  -0.246600  -0.029787
    5  C  1  Z   -0.000000   0.294408   0.007860  -0.050204  -0.725569
    6  C  1  S    2.788491  -0.000000   0.000000  -0.000000   0.000000
    7  C  1  X   -0.000000  -0.170530   1.246365  -0.804884  -0.194235
    8  C  1  Y   -0.000000  -0.188263  -0.821812  -1.232691   0.054870
    9  C  1  Z   -0.000000   1.471673   0.039292  -0.250957   1.336531
   10  C  1 XX   -0.012529   0.000000  -0.000000   0.000000   0.000000
   11  C  1 YY   -0.012529  -0.000000   0.000000  -0.000000  -0.000000
   12  C  1 ZZ   -0.012529  -0.000000  -0.000000  -0.000000  -0.000000
   13  C  1 XY   -0.000000  -0.014873  -0.000397   0.002536  -0.102513
   14  C  1 XZ   -0.000000   0.001903   0.008306   0.012458  -0.004209
   15  C  1 YZ    0.000000   0.001723  -0.012596   0.008135   0.014898
   16  H  2  S    0.003878  -0.033390  -0.013917   0.068663  -0.275650
   17  H  2  S   -1.041009  -0.860504  -0.358656   1.769545  -0.044371
   18  H  3  S    0.003878  -0.054920   0.011559  -0.053604  -0.339829
   19  H  3  S   -1.041009  -1.415358   0.297892  -1.381454  -0.054701
   20  H  4  S    0.003878   0.043623  -0.060873  -0.020365   0.365096
   21  H  4  S   -1.041009   1.124219  -1.568780  -0.524836   0.058769
   22  H  5  S    0.003878   0.044687   0.063231   0.005306   0.250382
   23  H  5  S   -1.041009   1.151643   1.629543   0.136744   0.040303

                     11         12         13         14         15
                    0.7305     0.7305     1.1786     1.1786     1.1786
                     A          A          A          A          A   
    1  C  1  S    0.000000   0.000000  -0.000000  -0.000000   0.000000
    2  C  1  S    0.000000   0.000000   0.000000   0.000000  -0.000000
    3  C  1  X   -0.137730  -0.713000   0.058537  -0.686188   0.599886
    4  C  1  Y   -0.720691   0.134811   0.060254   0.602721   0.683550
    5  C  1  Z    0.009571  -0.109153  -0.909443  -0.004234   0.083900
    6  C  1  S   -0.000000  -0.000000  -0.000000  -0.000000   0.000000
    7  C  1  X    0.253705   1.313377  -0.076826   0.900578  -0.787313
    8  C  1  Y    1.327545  -0.248327  -0.079080  -0.791033  -0.897116
    9  C  1  Z   -0.017630   0.201065   1.193586   0.005557  -0.110113
   10  C  1 XX   -0.000000   0.000000  -0.000000   0.000000  -0.000000
   11  C  1 YY    0.000000   0.000000   0.000000   0.000000  -0.000000
   12  C  1 ZZ    0.000000   0.000000   0.000000   0.000000  -0.000000
   13  C  1 XY    0.001352  -0.015422   0.217125   0.001011  -0.020031
   14  C  1 XZ   -0.101824   0.019047  -0.014385  -0.143897  -0.163194
   15  C  1 YZ   -0.019459  -0.100738  -0.013975   0.163824  -0.143220
   16  H  2  S   -0.360027  -0.291526   0.427937   0.047468  -0.740066
   17  H  2  S   -0.057953  -0.046926  -0.792489  -0.087905   1.370513
   18  H  3  S    0.368146   0.198935   0.556528  -0.042884   0.649245
   19  H  3  S    0.059259   0.032022  -1.030623   0.079417  -1.202324
   20  H  4  S    0.243195  -0.313290  -0.491303   0.695325   0.090693
   21  H  4  S    0.039146  -0.050430   0.909835  -1.287659  -0.167953
   22  H  5  S   -0.251314   0.405882  -0.493162  -0.699909   0.000128
   23  H  5  S   -0.040453   0.065334   0.913277   1.296147  -0.000237

                     16         17         18         19         20
                    1.2413     1.3125     1.9420     1.9420     2.5825
                     A          A          A          A          A   
    1  C  1  S    0.081297  -0.121147   0.000000   0.000000   0.000000
    2  C  1  S   -1.135731  -1.856673   0.000000   0.000000  -0.000000
    3  C  1  X   -0.000000  -0.000000  -0.000000  -0.000000  -0.100324
    4  C  1  Y   -0.000000   0.000000   0.000000  -0.000000   0.138350
    5  C  1  Z   -0.000000  -0.000000   0.000000   0.000000  -0.005151
    6  C  1  S    1.940826   5.191181   0.000000  -0.000000  -0.000000
    7  C  1  X    0.000000   0.000000   0.000000   0.000000  -0.241859
    8  C  1  Y    0.000000  -0.000000  -0.000000  -0.000000   0.333530
    9  C  1  Z    0.000000   0.000000  -0.000000  -0.000000  -0.012419
   10  C  1 XX   -0.059662  -0.129734  -0.865858  -0.500290   0.000000
   11  C  1 YY   -0.059662  -0.129734   0.866193  -0.499710  -0.000000
   12  C  1 ZZ   -0.059662  -0.129734  -0.000335   1.000000  -0.000000
   13  C  1 XY    0.000000  -0.000000  -0.000000  -0.000000  -0.034012
   14  C  1 XZ    0.000000  -0.000000   0.000000   0.000000   0.913432
   15  C  1 YZ    0.000000  -0.000000   0.000000  -0.000000  -0.662374
   16  H  2  S    0.592759  -0.399796   0.000000   0.000000  -0.093608
   17  H  2  S   -0.668575  -0.922918   0.000000   0.000000   0.011645
   18  H  3  S    0.592759  -0.399796  -0.000000   0.000000   0.122945
   19  H  3  S   -0.668575  -0.922918   0.000000   0.000000  -0.015295
   20  H  4  S    0.592759  -0.399796   0.000000   0.000000   0.664944
   21  H  4  S   -0.668575  -0.922918  -0.000000   0.000000  -0.082721
   22  H  5  S    0.592759  -0.399796  -0.000000   0.000000  -0.694281
   23  H  5  S   -0.668575  -0.922918   0.000000   0.000000   0.086371

                     21         22         23
                    2.5825     2.5825     4.6068
                     A          A          A   
    1  C  1  S   -0.000000   0.000000  -0.485123
    2  C  1  S    0.000000   0.000000   2.969946
    3  C  1  X    0.138366   0.004702   0.000000
    4  C  1  Y    0.099981   0.009763  -0.000000
    5  C  1  Z   -0.009533   0.170630   0.000000
    6  C  1  S    0.000000  -0.000000   2.387438
    7  C  1  X    0.333568   0.011335  -0.000000
    8  C  1  Y    0.241031   0.023536   0.000000
    9  C  1  Z   -0.022983   0.411351  -0.000000
   10  C  1 XX    0.000000  -0.000000  -1.878819
   11  C  1 YY   -0.000000   0.000000  -1.878819
   12  C  1 ZZ   -0.000000   0.000000  -1.878819
   13  C  1 XY   -0.062943   1.126559   0.000000
   14  C  1 XZ    0.660107   0.064459  -0.000000
   15  C  1 YZ    0.913538   0.031043  -0.000000
   16  H  2  S   -0.651534  -0.527050   0.128724
   17  H  2  S    0.081053   0.065567  -0.482881
   18  H  3  S    0.705826  -0.444673   0.128724
   19  H  3  S   -0.087807   0.055319  -0.482881
   20  H  4  S   -0.136445   0.500273   0.128724
   21  H  4  S    0.016974  -0.062236  -0.482881
   22  H  5  S    0.082153   0.471450   0.128724
   23  H  5  S   -0.010220  -0.058650  -0.482881
 ...... END OF UHF CALCULATION ......
 STEP CPU TIME =     0.00 TOTAL CPU TIME =          0.0 (      0.0 MIN)
 TOTAL WALL CLOCK TIME=          0.0 SECONDS, CPU UTILIZATION IS    96.51%

     ----------------------------------------------------------------
     PROPERTY VALUES FOR THE UHF   SELF-CONSISTENT FIELD WAVEFUNCTION
     ----------------------------------------------------------------

          -----------------
          ENERGY COMPONENTS
          -----------------

         WAVEFUNCTION NORMALIZATION =       1.0000000000

                ONE ELECTRON ENERGY =     -79.6925849531
                TWO ELECTRON ENERGY =      26.0626703414
           NUCLEAR REPULSION ENERGY =      13.4348549515
                                      ------------------
                       TOTAL ENERGY =     -40.1950596602

 ELECTRON-ELECTRON POTENTIAL ENERGY =      26.0626703414
  NUCLEUS-ELECTRON POTENTIAL ENERGY =    -119.8392523215
   NUCLEUS-NUCLEUS POTENTIAL ENERGY =      13.4348549515
                                      ------------------
             TOTAL POTENTIAL ENERGY =     -80.3417270286
               TOTAL KINETIC ENERGY =      40.1466673684
                 VIRIAL RATIO (V/T) =       2.0012053875

          ---------------------------------------
          MULLIKEN AND LOWDIN POPULATION ANALYSES
          ---------------------------------------

     ATOMIC MULLIKEN POPULATION IN EACH MOLECULAR ORBITAL
        ALPHA ORBITALS

                      1          2          3          4          5

                  1.000000   1.000000   1.000000   1.000000   1.000000

    1             0.999023   0.675672   0.551553   0.551553   0.551553
    2             0.000244   0.081082   0.023341   0.160092   0.152902
    3             0.000244   0.081082   0.045725   0.216257   0.074354
    4             0.000244   0.081082   0.216217   0.023905   0.096214
    5             0.000244   0.081082   0.163164   0.048193   0.124977

     ATOMIC MULLIKEN POPULATION IN EACH MOLECULAR ORBITAL
         BETA ORBITALS

                      1          2          3          4          5

                  1.000000   1.000000   1.000000   1.000000   1.000000

    1             0.999023   0.675672   0.551553   0.551553   0.551553
    2             0.000244   0.081082   0.023341   0.160092   0.152902
    3             0.000244   0.081082   0.045725   0.216257   0.074354
    4             0.000244   0.081082   0.216216   0.023905   0.096214
    5             0.000244   0.081082   0.163164   0.048194   0.124977

     ATOMIC SPIN POPULATION (ALPHA MINUS BETA)
       ATOM         MULL.POP.                    LOW.POP.
    1 C             0.000000                     0.000000
    2 H            -0.000000                    -0.000000
    3 H            -0.000000                    -0.000000
    4 H            -0.000000                    -0.000000
    5 H            -0.000000                    -0.000000


          ********* ALL ELECTRONS ********

               ----- POPULATIONS IN EACH AO -----
                             MULLIKEN      LOWDIN
              1  C  1  S      1.99643     1.98230
              2  C  1  S      0.62497     0.35216
              3  C  1  X      0.69158     0.62615
              4  C  1  Y      0.69158     0.62615
              5  C  1  Z      0.69158     0.62615
              6  C  1  S      0.68848     0.35579
              7  C  1  X      0.39759     0.51962
              8  C  1  Y      0.39759     0.51962
              9  C  1  Z      0.39759     0.51962
             10  C  1 XX      0.01317     0.14763
             11  C  1 YY      0.01317     0.14763
             12  C  1 ZZ      0.01317     0.14763
             13  C  1 XY      0.01393     0.02035
             14  C  1 XZ      0.01393     0.02035
             15  C  1 YZ      0.01393     0.02035
             16  H  2  S      0.52116     0.48179
             17  H  2  S      0.31416     0.36034
             18  H  3  S      0.52116     0.48179
             19  H  3  S      0.31416     0.36034
             20  H  4  S      0.52116     0.48179
             21  H  4  S      0.31416     0.36034
             22  H  5  S      0.52116     0.48179
             23  H  5  S      0.31416     0.36034

          ----- MULLIKEN ATOMIC OVERLAP POPULATIONS -----
          (OFF-DIAGONAL ELEMENTS NEED TO BE MULTIPLIED BY 2)

             1           2           3           4           5

    1    5.1077495
    2    0.3877400   0.5252959
    3    0.3877400  -0.0259045   0.5252959
    4    0.3877400  -0.0259045  -0.0259045   0.5252959
    5    0.3877400  -0.0259045  -0.0259045  -0.0259045   0.5252959

          TOTAL MULLIKEN AND LOWDIN ATOMIC POPULATIONS
       ATOM         MULL.POP.    CHARGE          LOW.POP.     CHARGE
    1 C             6.658710   -0.658710         6.631464   -0.631464
    2 H             0.835323    0.164677         0.842134    0.157866
    3 H             0.835323    0.164677         0.842134    0.157866
    4 H             0.835323    0.164677         0.842134    0.157866
    5 H             0.835323    0.164677         0.842134    0.157866

          -------------------------------
          BOND ORDER AND VALENCE ANALYSIS     BOND ORDER THRESHOLD=0.050
          -------------------------------

                   BOND                       BOND                       BOND
  ATOM PAIR DIST  ORDER      ATOM PAIR DIST  ORDER      ATOM PAIR DIST  ORDER
    1   2  1.090  0.962        1   3  1.090  0.962        1   4  1.090  0.962
    1   5  1.090  0.962

                       TOTAL       BONDED        FREE
      ATOM            VALENCE     VALENCE     VALENCE
    1 C                 3.847       3.847      -0.000
    2 H                 0.934       0.934       0.000
    3 H                 0.934       0.934      -0.000
    4 H                 0.934       0.934      -0.000
    5 H                 0.934       0.934       0.000

          -----------------------------------------
          ATOMIC SPIN DENSITY AT THE NUCLEUS (A.U.)
          -----------------------------------------
                            SPIN DENS    ALPHA DENS     BETA DENS
    1  C            6.0     0.0000000      58.99461      58.99461
    2  H            1.0    -0.0000000       0.20905       0.20905
    3  H            1.0    -0.0000000       0.20905       0.20905
    4  H            1.0    -0.0000000       0.20905       0.20905
    5  H            1.0    -0.0000000       0.20905       0.20905

          ---------------------
          ELECTROSTATIC MOMENTS
          ---------------------

 POINT   1           X           Y           Z (BOHR)    CHARGE
                 0.000000    0.000000    0.000000       -0.00 (A.U.)
         DX          DY          DZ         /D/  (DEBYE)
    -0.000000    0.000000    0.000000    0.000000
 ...... END OF PROPERTY EVALUATION ......
 STEP CPU TIME =     0.00 TOTAL CPU TIME =          0.0 (      0.0 MIN)
 TOTAL WALL CLOCK TIME=          0.0 SECONDS, CPU UTILIZATION IS    96.77%

 BEGINNING ONE ELECTRON GRADIENT...
 ..... END OF 1-ELECTRON GRADIENT ......
 STEP CPU TIME =     0.00 TOTAL CPU TIME =          0.0 (      0.0 MIN)
 TOTAL WALL CLOCK TIME=          0.0 SECONDS, CPU UTILIZATION IS    96.89%

          ----------------------
          GRADIENT OF THE ENERGY
          ----------------------

 THE MINIMUM MEMORY REQUIRED FOR THIS RUN IS      74357 WORDS.
 USING     988907 WORDS FOR 2E- DERIVATIVE INTEGRAL CONTRIBUTIONS.
 THE COARSE/FINE SCHWARZ SCREENINGS SKIPPED            0/           0 BLOCKS.
 THE NUMBER OF GRADIENT INTEGRAL BLOCKS COMPUTED WAS      3002
 ...... END OF 2-ELECTRON GRADIENT ......
 STEP CPU TIME =     0.00 TOTAL CPU TIME =          0.0 (      0.0 MIN)
 TOTAL WALL CLOCK TIME=          0.0 SECONDS, CPU UTILIZATION IS    97.56%

          NSERCH=  0     ENERGY=     -40.1950597

                                 -----------------------
                                 GRADIENT (HARTREE/BOHR)
                                 -----------------------
        ATOM     ZNUC       DE/DX         DE/DY         DE/DZ
 --------------------------------------------------------------
    1  C            6.0     0.0000000     0.0000000     0.0000000
    2  H            1.0     0.0026705     0.0026705     0.0026705
    3  H            1.0    -0.0026705    -0.0026705     0.0026705
    4  H            1.0     0.0026705    -0.0026705    -0.0026705
    5  H            1.0    -0.0026705     0.0026705    -0.0026705

          MAXIMUM GRADIENT = 0.0026705    RMS GRADIENT = 0.0023886

 NSERCH:   0  E=      -40.1950596602  GRAD. MAX=  0.0026705  R.M.S.=  0.0023886

          FORCE CONSTANT MATRIX NOT UPDATED --- TAKING FIRST STEP
          MIN SEARCH, CORRECT HESSIAN, TRYING PURE NR STEP
               NR STEP HAS LENGTH         =   0.018817
          RADIUS OF STEP TAKEN=   0.01882  CURRENT TRUST RADIUS=   0.30000

 BEGINNING GEOMETRY SEARCH POINT NSERCH=   1 ...

 COORDINATES OF ALL ATOMS ARE (ANGS)
   ATOM   CHARGE       X              Y              Z
 ------------------------------------------------------------
 C           6.0  -0.0000000025   0.0000000028  -0.0000000013
 H           1.0   0.6264623779   0.6264623727   0.6264624006
 H           1.0  -0.6264623726  -0.6264623778   0.6264624003
 H           1.0   0.6264623755  -0.6264623757  -0.6264623959
 H           1.0  -0.6264623783   0.6264623780  -0.6264624036

          INTERNUCLEAR DISTANCES (ANGS.)
          ------------------------------

                1 C          2 H          3 H          4 H          5 H     

   1 C       0.0000000    1.0850647 *  1.0850647 *  1.0850647 *  1.0850647 *
   2 H       1.0850647 *  0.0000000    1.7719032 *  1.7719032 *  1.7719032 *
   3 H       1.0850647 *  1.7719032 *  0.0000000    1.7719032 *  1.7719032 *
   4 H       1.0850647 *  1.7719032 *  1.7719032 *  0.0000000    1.7719032 *
   5 H       1.0850647 *  1.7719032 *  1.7719032 *  1.7719032 *  0.0000000  

  * ... LESS THAN  3.000

 ...... END OF ONE-ELECTRON INTEGRALS ......
 STEP CPU TIME =     0.00 TOTAL CPU TIME =          0.0 (      0.0 MIN)
 TOTAL WALL CLOCK TIME=          0.0 SECONDS, CPU UTILIZATION IS    97.60%
 TOTAL NUMBER OF NONZERO TWO-ELECTRON INTEGRALS =               31404
          3 INTEGRAL RECORDS WERE STORED ON DISK FILE  8.
  ...... END OF TWO-ELECTRON INTEGRALS .....
 STEP CPU TIME =     0.00 TOTAL CPU TIME =          0.0 (      0.0 MIN)
 TOTAL WALL CLOCK TIME=          0.0 SECONDS, CPU UTILIZATION IS    97.54%

          ---------------------------
                  UHF SCF CALCULATION
          ---------------------------
     DENSITY MATRIX CONV=  1.00E-05

 ITER EX      TOTAL ENERGY        E CHANGE  DENSITY CHANGE    ORB. GRAD 
          ---------------START SECOND ORDER SCF---------------
   1  0      -40.1951497075   -40.1951497075   0.002436841   0.001801076
   2  1      -40.1951644802    -0.0000147727   0.000659527   0.000675731
   3  2      -40.1951664134    -0.0000019331   0.000048703   0.000051665
   4  3      -40.1951664234    -0.0000000101   0.000015071   0.000006174
   5  4      -40.1951664239    -0.0000000005   0.000001950   0.000001778
   6  5      -40.1951664240    -0.0000000000   0.000000417   0.000000328

          -----------------
          DENSITY CONVERGED
          -----------------
     TIME TO FORM FOCK OPERATORS=       0.0 SECONDS (       0.0 SEC/ITER)
     TIME TO SOLVE SCF EQUATIONS=       0.0 SECONDS (       0.0 SEC/ITER)

 FINAL UHF ENERGY IS      -40.1951664240 AFTER   6 ITERATIONS

          --------------------
          SPIN SZ   =    0.000
          S-SQUARED =   -0.000
          --------------------
 ...... END OF UHF CALCULATION ......
 STEP CPU TIME =     0.00 TOTAL CPU TIME =          0.0 (      0.0 MIN)
 TOTAL WALL CLOCK TIME=          0.0 SECONDS, CPU UTILIZATION IS    97.70%
 ..... END OF 1-ELECTRON GRADIENT ......
 STEP CPU TIME =     0.00 TOTAL CPU TIME =          0.0 (      0.0 MIN)
 TOTAL WALL CLOCK TIME=          0.0 SECONDS, CPU UTILIZATION IS    97.75%
 ...... END OF 2-ELECTRON GRADIENT ......
 STEP CPU TIME =     0.00 TOTAL CPU TIME =          0.0 (      0.0 MIN)
 TOTAL WALL CLOCK TIME=          0.0 SECONDS, CPU UTILIZATION IS    98.04%

          NSERCH=  1     ENERGY=     -40.1951664

                                 -----------------------
                                 GRADIENT (HARTREE/BOHR)
                                 -----------------------
        ATOM     ZNUC       DE/DX         DE/DY         DE/DZ
 --------------------------------------------------------------
    1  C            6.0     0.0000000     0.0000000     0.0000000
    2  H            1.0     0.0005961     0.0005961     0.0005961
    3  H            1.0    -0.0005961    -0.0005961     0.0005961
    4  H            1.0     0.0005961    -0.0005961    -0.0005961
    5  H            1.0    -0.0005961     0.0005961    -0.0005961

          MAXIMUM GRADIENT = 0.0005961    RMS GRADIENT = 0.0005331

 NSERCH:   1  E=      -40.1951664240  GRAD. MAX=  0.0005961  R.M.S.=  0.0005331

          HESSIAN UPDATED USING THE BFGS FORMULA
             ACTUAL ENERGY CHANGE WAS  -0.0001067637
          PREDICTED ENERGY CHANGE WAS  -0.0000870363 RATIO=  1.227
          MIN SEARCH, CORRECT HESSIAN, TRYING PURE NR STEP
               NR STEP HAS LENGTH         =   0.005407
          RADIUS OF STEP TAKEN=   0.00541  CURRENT TRUST RADIUS=   0.05000

 BEGINNING GEOMETRY SEARCH POINT NSERCH=   2 ...

 COORDINATES OF ALL ATOMS ARE (ANGS)
   ATOM   CHARGE       X              Y              Z
 ------------------------------------------------------------
 C           6.0   0.0000000076  -0.0000000072   0.0000000022
 H           1.0   0.6256364399   0.6256364510   0.6256363683
 H           1.0  -0.6256364524  -0.6256364385   0.6256363681
 H           1.0   0.6256364461  -0.6256364449  -0.6256363781
 H           1.0  -0.6256364412   0.6256364396  -0.6256363606

          INTERNUCLEAR DISTANCES (ANGS.)
          ------------------------------

                1 C          2 H          3 H          4 H          5 H     

   1 C       0.0000000    1.0836341 *  1.0836341 *  1.0836341 *  1.0836341 *
   2 H       1.0836341 *  0.0000000    1.7695671 *  1.7695670 *  1.7695670 *
   3 H       1.0836341 *  1.7695671 *  0.0000000    1.7695670 *  1.7695670 *
   4 H       1.0836341 *  1.7695670 *  1.7695670 *  0.0000000    1.7695671 *
   5 H       1.0836341 *  1.7695670 *  1.7695670 *  1.7695671 *  0.0000000  

  * ... LESS THAN  3.000

 ...... END OF ONE-ELECTRON INTEGRALS ......
 STEP CPU TIME =     0.00 TOTAL CPU TIME =          0.0 (      0.0 MIN)
 TOTAL WALL CLOCK TIME=          0.0 SECONDS, CPU UTILIZATION IS    98.05%
 TOTAL NUMBER OF NONZERO TWO-ELECTRON INTEGRALS =               31404
          3 INTEGRAL RECORDS WERE STORED ON DISK FILE  8.
  ...... END OF TWO-ELECTRON INTEGRALS .....
 STEP CPU TIME =     0.00 TOTAL CPU TIME =          0.0 (      0.0 MIN)
 TOTAL WALL CLOCK TIME=          0.0 SECONDS, CPU UTILIZATION IS    98.04%

          ---------------------------
                  UHF SCF CALCULATION
          ---------------------------
     DENSITY MATRIX CONV=  1.00E-05

 ITER EX      TOTAL ENERGY        E CHANGE  DENSITY CHANGE    ORB. GRAD 
          ---------------START SECOND ORDER SCF---------------
   1  0      -40.1951705280   -40.1951705280   0.000703026   0.000524599
   2  1      -40.1951717580    -0.0000012299   0.000188923   0.000196060
   3  2      -40.1951719171    -0.0000001591   0.000014431   0.000015634
   4  3      -40.1951719180    -0.0000000009   0.000004277   0.000001811
   5  4      -40.1951719180    -0.0000000000   0.000000590   0.000000523

          -----------------
          DENSITY CONVERGED
          -----------------
     TIME TO FORM FOCK OPERATORS=       0.0 SECONDS (       0.0 SEC/ITER)
     TIME TO SOLVE SCF EQUATIONS=       0.0 SECONDS (       0.0 SEC/ITER)

 FINAL UHF ENERGY IS      -40.1951719180 AFTER   5 ITERATIONS

          --------------------
          SPIN SZ   =    0.000
          S-SQUARED =   -0.000
          --------------------
 ...... END OF UHF CALCULATION ......
 STEP CPU TIME =     0.00 TOTAL CPU TIME =          0.0 (      0.0 MIN)
 TOTAL WALL CLOCK TIME=          0.0 SECONDS, CPU UTILIZATION IS    98.14%
 ..... END OF 1-ELECTRON GRADIENT ......
 STEP CPU TIME =     0.00 TOTAL CPU TIME =          0.0 (      0.0 MIN)
 TOTAL WALL CLOCK TIME=          0.0 SECONDS, CPU UTILIZATION IS    98.16%
 ...... END OF 2-ELECTRON GRADIENT ......
 STEP CPU TIME =     0.00 TOTAL CPU TIME =          0.0 (      0.0 MIN)
 TOTAL WALL CLOCK TIME=          0.0 SECONDS, CPU UTILIZATION IS    98.36%

          NSERCH=  2     ENERGY=     -40.1951719

                                 -----------------------
                                 GRADIENT (HARTREE/BOHR)
                                 -----------------------
        ATOM     ZNUC       DE/DX         DE/DY         DE/DZ
 --------------------------------------------------------------
    1  C            6.0     0.0000000     0.0000000     0.0000000
    2  H            1.0    -0.0000102    -0.0000102    -0.0000102
    3  H            1.0     0.0000102     0.0000102    -0.0000103
    4  H            1.0    -0.0000102     0.0000102     0.0000102
    5  H            1.0     0.0000102    -0.0000102     0.0000103

          MAXIMUM GRADIENT = 0.0000103    RMS GRADIENT = 0.0000092

 NSERCH:   2  E=      -40.1951719180  GRAD. MAX=  0.0000103  R.M.S.=  0.0000092


      ***** EQUILIBRIUM GEOMETRY LOCATED *****
 COORDINATES OF ALL ATOMS ARE (ANGS)
   ATOM   CHARGE       X              Y              Z
 ------------------------------------------------------------
 C           6.0   0.0000000076  -0.0000000072   0.0000000022
 H           1.0   0.6256364399   0.6256364510   0.6256363683
 H           1.0  -0.6256364524  -0.6256364385   0.6256363681
 H           1.0   0.6256364461  -0.6256364449  -0.6256363781
 H           1.0  -0.6256364412   0.6256364396  -0.6256363606

          INTERNUCLEAR DISTANCES (ANGS.)
          ------------------------------

                1 C          2 H          3 H          4 H          5 H     

   1 C       0.0000000    1.0836341 *  1.0836341 *  1.0836341 *  1.0836341 *
   2 H       1.0836341 *  0.0000000    1.7695671 *  1.7695670 *  1.7695670 *
   3 H       1.0836341 *  1.7695671 *  0.0000000    1.7695670 *  1.7695670 *
   4 H       1.0836341 *  1.7695670 *  1.7695670 *  0.0000000    1.7695671 *
   5 H       1.0836341 *  1.7695670 *  1.7695670 *  1.7695671 *  0.0000000  

  * ... LESS THAN  3.000


          NUCLEAR ENERGY    =       13.5143179996
          ELECTRONIC ENERGY =      -53.7094899176
          TOTAL ENERGY      =      -40.1951719180

          SPIN SZ   =   0.000
          S-SQUARED =  -0.000

          ------------------
          MOLECULAR ORBITALS
          ------------------

          **** ALPHA SET **** 

                      1          2          3          4          5
                  -11.2050    -0.9446    -0.5462    -0.5462    -0.5462
                     A          A          A          A          A   
    1  C  1  S    0.995620   0.194148   0.000000   0.000000   0.000000
    2  C  1  S    0.028508  -0.358889  -0.000000  -0.000000  -0.000000
    3  C  1  X   -0.000000   0.000000  -0.379539  -0.213494  -0.024169
    4  C  1  Y    0.000000  -0.000000  -0.214703   0.378720   0.026221
    5  C  1  Z   -0.000000   0.000000   0.008152   0.034716  -0.434674
    6  C  1  S   -0.013354  -0.362592  -0.000000  -0.000000  -0.000000
    7  C  1  X    0.000000   0.000000  -0.199057  -0.111971  -0.012676
    8  C  1  Y   -0.000000  -0.000000  -0.112605   0.198627   0.013752
    9  C  1  Z    0.000000   0.000000   0.004276   0.018208  -0.227974
   10  C  1 XX   -0.002076  -0.010180   0.000000   0.000000   0.000000
   11  C  1 YY   -0.002076  -0.010180  -0.000000   0.000000  -0.000000
   12  C  1 ZZ   -0.002076  -0.010180   0.000000  -0.000000   0.000000
   13  C  1 XY    0.000000  -0.000000   0.000672   0.002864  -0.035856
   14  C  1 XZ   -0.000000   0.000000  -0.017711   0.031240   0.002163
   15  C  1 YZ    0.000000  -0.000000  -0.031308  -0.017611  -0.001994
   16  H  2  S    0.000043  -0.134644  -0.226645   0.077319  -0.167298
   17  H  2  S    0.002479  -0.037689  -0.186796   0.063725  -0.137884
   18  H  3  S    0.000043  -0.134644   0.232950  -0.050469  -0.168885
   19  H  3  S    0.002479  -0.037689   0.191992  -0.041596  -0.139191
   20  H  4  S    0.000043  -0.134644  -0.066896  -0.242438   0.148605
   21  H  4  S    0.002479  -0.037689  -0.055134  -0.199812   0.122477
   22  H  5  S    0.000043  -0.134644   0.060591   0.215588   0.187578
   23  H  5  S    0.002479  -0.037689   0.049938   0.177683   0.154598

                      6          7          8          9         10
                    0.2571     0.3278     0.3278     0.3278     0.7282
                     A          A          A          A          A   
    1  C  1  S    0.157029  -0.000000  -0.000000   0.000000  -0.000000
    2  C  1  S   -0.104575   0.000000   0.000000  -0.000000  -0.000000
    3  C  1  X   -0.000000  -0.007273  -0.098447   0.280113  -0.035875
    4  C  1  Y    0.000000   0.008114   0.280026   0.098627   0.035057
    5  C  1  Z   -0.000000  -0.296798   0.010068  -0.004168  -0.727353
    6  C  1  S   -2.823903   0.000000   0.000000  -0.000000   0.000000
    7  C  1  X   -0.000000  -0.036867  -0.499017   1.419865   0.066669
    8  C  1  Y    0.000000   0.041130   1.419427   0.499930  -0.065149
    9  C  1  Z   -0.000000  -1.504441   0.051034  -0.021127   1.351695
   10  C  1 XX    0.012690  -0.000000   0.000000   0.000000  -0.000000
   11  C  1 YY    0.012690   0.000000  -0.000000  -0.000000  -0.000000
   12  C  1 ZZ    0.012690  -0.000000   0.000000  -0.000000   0.000000
   13  C  1 XY    0.000000   0.015117  -0.000513   0.000212  -0.102063
   14  C  1 XZ   -0.000000  -0.000413  -0.014263  -0.005024   0.004919
   15  C  1 YZ    0.000000   0.000370   0.005014  -0.014267  -0.005034
   16  H  2  S   -0.005268   0.043945  -0.028456  -0.055617  -0.310853
   17  H  2  S    1.050307   1.163739  -0.753582  -1.472861  -0.052746
   18  H  3  S   -0.005268   0.044194   0.025467   0.056855  -0.310155
   19  H  3  S    1.050307   1.170352   0.674404   1.505639  -0.052627
   20  H  4  S   -0.005268  -0.041785   0.057692  -0.027566   0.280224
   21  H  4  S    1.050307  -1.106540   1.527790  -0.730013   0.047549
   22  H  5  S   -0.005268  -0.046354  -0.054702   0.026329   0.340784
   23  H  5  S    1.050307  -1.227550  -1.448612   0.697235   0.057825

                     11         12         13         14         15
                    0.7282     0.7282     1.1844     1.1844     1.1844
                     A          A          A          A          A   
    1  C  1  S    0.000000  -0.000000   0.000000   0.000000   0.000000
    2  C  1  S    0.000000  -0.000000  -0.000000  -0.000000  -0.000000
    3  C  1  X    0.291556  -0.667282  -0.051994  -0.447489  -0.800388
    4  C  1  Y   -0.666626  -0.293154   0.056631   0.798576  -0.450155
    5  C  1  Z   -0.046510   0.018783  -0.915238   0.074834   0.017616
    6  C  1  S   -0.000000   0.000000  -0.000000  -0.000000  -0.000000
    7  C  1  X   -0.541822   1.240062   0.068194   0.586914   1.049767
    8  C  1  Y    1.238842   0.544791  -0.074275  -1.047391   0.590410
    9  C  1  Z    0.086434  -0.034905   1.200401  -0.098150  -0.023104
   10  C  1 XX    0.000000   0.000000   0.000000  -0.000000  -0.000000
   11  C  1 YY   -0.000000  -0.000000   0.000000  -0.000000   0.000000
   12  C  1 ZZ    0.000000  -0.000000  -0.000000   0.000000   0.000000
   13  C  1 XY   -0.006526   0.002636   0.219173  -0.017920  -0.004218
   14  C  1 XZ   -0.093542  -0.041136  -0.013561  -0.191236   0.107799
   15  C  1 YZ    0.040912  -0.093634   0.012451   0.107160   0.191669
   16  H  2  S   -0.179971  -0.401988   0.489539  -0.228975   0.662822
   17  H  2  S   -0.030538  -0.068210  -0.911084   0.426147  -1.233581
   18  H  3  S    0.140261   0.418025   0.494525   0.148514  -0.681762
   19  H  3  S    0.023800   0.070931  -0.920363  -0.276401   1.268831
   20  H  4  S    0.428899  -0.167732  -0.433635   0.710115   0.197756
   21  H  4  S    0.072776  -0.028461   0.807041  -1.321599  -0.368044
   22  H  5  S   -0.389189   0.151696  -0.550428  -0.629654  -0.178815
   23  H  5  S   -0.066038   0.025740   1.024405   1.171853   0.332794

          **** BETA SET ****

                      1          2          3          4          5
                  -11.2050    -0.9446    -0.5462    -0.5462    -0.5462
                     A          A          A          A          A   
    1  C  1  S    0.995620   0.194148   0.000000   0.000000   0.000000
    2  C  1  S    0.028508  -0.358889  -0.000000  -0.000000  -0.000000
    3  C  1  X   -0.000000   0.000000  -0.379539  -0.213494  -0.024168
    4  C  1  Y    0.000000  -0.000000  -0.214703   0.378720   0.026221
    5  C  1  Z   -0.000000   0.000000   0.008151   0.034716  -0.434675
    6  C  1  S   -0.013354  -0.362592  -0.000000  -0.000000  -0.000000
    7  C  1  X    0.000000   0.000000  -0.199057  -0.111971  -0.012676
    8  C  1  Y   -0.000000  -0.000000  -0.112605   0.198627   0.013752
    9  C  1  Z    0.000000   0.000000   0.004275   0.018208  -0.227974
   10  C  1 XX   -0.002076  -0.010180   0.000000   0.000000   0.000000
   11  C  1 YY   -0.002076  -0.010180  -0.000000   0.000000  -0.000000
   12  C  1 ZZ   -0.002076  -0.010180   0.000000  -0.000000   0.000000
   13  C  1 XY    0.000000  -0.000000   0.000672   0.002864  -0.035856
   14  C  1 XZ   -0.000000   0.000000  -0.017711   0.031240   0.002163
   15  C  1 YZ    0.000000  -0.000000  -0.031308  -0.017611  -0.001994
   16  H  2  S    0.000043  -0.134644  -0.226645   0.077319  -0.167298
   17  H  2  S    0.002479  -0.037689  -0.186796   0.063724  -0.137883
   18  H  3  S    0.000043  -0.134644   0.232950  -0.050469  -0.168885
   19  H  3  S    0.002479  -0.037689   0.191992  -0.041595  -0.139192
   20  H  4  S    0.000043  -0.134644  -0.066895  -0.242438   0.148606
   21  H  4  S    0.002479  -0.037689  -0.055134  -0.199812   0.122478
   22  H  5  S    0.000043  -0.134644   0.060591   0.215588   0.187577
   23  H  5  S    0.002479  -0.037689   0.049938   0.177683   0.154597

                      6          7          8          9         10
                    0.2571     0.3278     0.3278     0.3278     0.7282
                     A          A          A          A          A   
    1  C  1  S    0.157029  -0.000000  -0.000000   0.000000  -0.000000
    2  C  1  S   -0.104575   0.000000   0.000000  -0.000000  -0.000000
    3  C  1  X   -0.000000  -0.007273  -0.098459   0.280108  -0.035876
    4  C  1  Y    0.000000   0.008114   0.280022   0.098639   0.035057
    5  C  1  Z   -0.000000  -0.296798   0.010069  -0.004167  -0.727353
    6  C  1  S   -2.823903   0.000000   0.000000  -0.000000   0.000000
    7  C  1  X   -0.000000  -0.036867  -0.499079   1.419843   0.066672
    8  C  1  Y    0.000000   0.041131   1.419405   0.499993  -0.065149
    9  C  1  Z   -0.000000  -1.504441   0.051037  -0.021125   1.351695
   10  C  1 XX    0.012690  -0.000000   0.000000   0.000000  -0.000000
   11  C  1 YY    0.012690   0.000000  -0.000000  -0.000000  -0.000000
   12  C  1 ZZ    0.012690  -0.000000   0.000000  -0.000000   0.000000
   13  C  1 XY    0.000000   0.015117  -0.000513   0.000212  -0.102063
   14  C  1 XZ   -0.000000  -0.000413  -0.014263  -0.005024   0.004919
   15  C  1 YZ    0.000000   0.000370   0.005015  -0.014267  -0.005034
   16  H  2  S   -0.005268   0.043945  -0.028454  -0.055619  -0.310854
   17  H  2  S    1.050307   1.163738  -0.753518  -1.472894  -0.052746
   18  H  3  S   -0.005268   0.044194   0.025464   0.056856  -0.310154
   19  H  3  S    1.050307   1.170353   0.674337   1.505668  -0.052627
   20  H  4  S   -0.005268  -0.041785   0.057693  -0.027564   0.280223
   21  H  4  S    1.050307  -1.106539   1.527823  -0.729946   0.047548
   22  H  5  S   -0.005268  -0.046354  -0.054703   0.026326   0.340785
   23  H  5  S    1.050307  -1.227551  -1.448641   0.697172   0.057825

                     11         12         13         14         15
                    0.7282     0.7282     1.1844     1.1844     1.1844
                     A          A          A          A          A   
    1  C  1  S    0.000000  -0.000000   0.000000   0.000000   0.000000
    2  C  1  S    0.000000  -0.000000  -0.000000  -0.000000  -0.000000
    3  C  1  X    0.291561  -0.667281  -0.051995  -0.447495  -0.800385
    4  C  1  Y   -0.666624  -0.293158   0.056630   0.798573  -0.450161
    5  C  1  Z   -0.046511   0.018784  -0.915238   0.074834   0.017616
    6  C  1  S   -0.000000   0.000000  -0.000000  -0.000000  -0.000000
    7  C  1  X   -0.541829   1.240059   0.068195   0.586922   1.049762
    8  C  1  Y    1.238838   0.544799  -0.074275  -1.047386   0.590418
    9  C  1  Z    0.086435  -0.034907   1.200401  -0.098150  -0.023105
   10  C  1 XX    0.000000   0.000000   0.000000  -0.000000  -0.000000
   11  C  1 YY   -0.000000  -0.000000   0.000000  -0.000000   0.000000
   12  C  1 ZZ    0.000000  -0.000000  -0.000000   0.000000   0.000000
   13  C  1 XY   -0.006526   0.002636   0.219173  -0.017921  -0.004219
   14  C  1 XZ   -0.093542  -0.041137  -0.013561  -0.191235   0.107800
   15  C  1 YZ    0.040912  -0.093634   0.012451   0.107162   0.191669
   16  H  2  S   -0.179968  -0.401989   0.489540  -0.228970   0.662823
   17  H  2  S   -0.030537  -0.068210  -0.911085   0.426138  -1.233583
   18  H  3  S    0.140258   0.418026   0.494524   0.148509  -0.681764
   19  H  3  S    0.023799   0.070931  -0.920361  -0.276391   1.268834
   20  H  4  S    0.428900  -0.167730  -0.433635   0.710117   0.197751
   21  H  4  S    0.072777  -0.028461   0.807041  -1.321602  -0.368035
   22  H  5  S   -0.389190   0.151693  -0.550429  -0.629655  -0.178810
   23  H  5  S   -0.066038   0.025739   1.024406   1.171855   0.332784

     ----------------------------------------------------------------
     PROPERTY VALUES FOR THE UHF   SELF-CONSISTENT FIELD WAVEFUNCTION
     ----------------------------------------------------------------

          -----------------
          ENERGY COMPONENTS
          -----------------

         WAVEFUNCTION NORMALIZATION =       1.0000000000

                ONE ELECTRON ENERGY =     -79.8428116892
                TWO ELECTRON ENERGY =      26.1333217716
           NUCLEAR REPULSION ENERGY =      13.5143179996
                                      ------------------
                       TOTAL ENERGY =     -40.1951719180

 ELECTRON-ELECTRON POTENTIAL ENERGY =      26.1333217716
  NUCLEUS-ELECTRON POTENTIAL ENERGY =    -120.0257267582
   NUCLEUS-NUCLEUS POTENTIAL ENERGY =      13.5143179996
                                      ------------------
             TOTAL POTENTIAL ENERGY =     -80.3780869870
               TOTAL KINETIC ENERGY =      40.1829150690
                 VIRIAL RATIO (V/T) =       2.0003050264

          ---------------------------------------
          MULLIKEN AND LOWDIN POPULATION ANALYSES
          ---------------------------------------

     ATOMIC MULLIKEN POPULATION IN EACH MOLECULAR ORBITAL
        ALPHA ORBITALS

                      1          2          3          4          5

                  1.000000   1.000000   1.000000   1.000000   1.000000

    1             0.999003   0.673744   0.552500   0.552500   0.552500
    2             0.000249   0.081564   0.202032   0.023513   0.110080
    3             0.000249   0.081564   0.213428   0.010018   0.112178
    4             0.000249   0.081564   0.017601   0.231169   0.086855
    5             0.000249   0.081564   0.014439   0.182800   0.138385

     ATOMIC MULLIKEN POPULATION IN EACH MOLECULAR ORBITAL
         BETA ORBITALS

                      1          2          3          4          5

                  1.000000   1.000000   1.000000   1.000000   1.000000

    1             0.999003   0.673744   0.552500   0.552500   0.552500
    2             0.000249   0.081564   0.202032   0.023512   0.110080
    3             0.000249   0.081564   0.213428   0.010018   0.112179
    4             0.000249   0.081564   0.017600   0.231169   0.086856
    5             0.000249   0.081564   0.014439   0.182801   0.138385

     ATOMIC SPIN POPULATION (ALPHA MINUS BETA)
       ATOM         MULL.POP.                    LOW.POP.
    1 C            -0.000000                    -0.000000
    2 H             0.000000                     0.000000
    3 H             0.000000                     0.000000
    4 H             0.000000                     0.000000
    5 H             0.000000                     0.000000


          ********* ALL ELECTRONS ********

               ----- POPULATIONS IN EACH AO -----
                             MULLIKEN      LOWDIN
              1  C  1  S      1.99642     1.98240
              2  C  1  S      0.62670     0.35232
              3  C  1  X      0.69541     0.62964
              4  C  1  Y      0.69541     0.62964
              5  C  1  Z      0.69541     0.62964
              6  C  1  S      0.68270     0.35296
              7  C  1  X      0.39558     0.51792
              8  C  1  Y      0.39558     0.51792
              9  C  1  Z      0.39558     0.51792
             10  C  1 XX      0.01322     0.14764
             11  C  1 YY      0.01322     0.14764
             12  C  1 ZZ      0.01322     0.14764
             13  C  1 XY      0.01401     0.02052
             14  C  1 XZ      0.01401     0.02052
             15  C  1 YZ      0.01401     0.02052
             16  H  2  S      0.52356     0.48354
             17  H  2  S      0.31132     0.35775
             18  H  3  S      0.52356     0.48354
             19  H  3  S      0.31132     0.35775
             20  H  4  S      0.52356     0.48354
             21  H  4  S      0.31132     0.35775
             22  H  5  S      0.52356     0.48354
             23  H  5  S      0.31132     0.35775

          ----- MULLIKEN ATOMIC OVERLAP POPULATIONS -----
          (OFF-DIAGONAL ELEMENTS NEED TO BE MULTIPLIED BY 2)

             1           2           3           4           5

    1    5.1051746
    2    0.3888305   0.5242684
    3    0.3888305  -0.0260743   0.5242684
    4    0.3888305  -0.0260743  -0.0260743   0.5242684
    5    0.3888305  -0.0260743  -0.0260743  -0.0260743   0.5242684

          TOTAL MULLIKEN AND LOWDIN ATOMIC POPULATIONS
       ATOM         MULL.POP.    CHARGE          LOW.POP.     CHARGE
    1 C             6.660497   -0.660497         6.634844   -0.634844
    2 H             0.834876    0.165124         0.841289    0.158711
    3 H             0.834876    0.165124         0.841289    0.158711
    4 H             0.834876    0.165124         0.841289    0.158711
    5 H             0.834876    0.165124         0.841289    0.158711

          -------------------------------
          BOND ORDER AND VALENCE ANALYSIS     BOND ORDER THRESHOLD=0.050
          -------------------------------

                   BOND                       BOND                       BOND
  ATOM PAIR DIST  ORDER      ATOM PAIR DIST  ORDER      ATOM PAIR DIST  ORDER
    1   2  1.084  0.962        1   3  1.084  0.962        1   4  1.084  0.962
    1   5  1.084  0.962

                       TOTAL       BONDED        FREE
      ATOM            VALENCE     VALENCE     VALENCE
    1 C                 3.848       3.848      -0.000
    2 H                 0.934       0.934       0.000
    3 H                 0.934       0.934       0.000
    4 H                 0.934       0.934      -0.000
    5 H                 0.934       0.934      -0.000

          -----------------------------------------
          ATOMIC SPIN DENSITY AT THE NUCLEUS (A.U.)
          -----------------------------------------
                            SPIN DENS    ALPHA DENS     BETA DENS
    1  C            6.0    -0.0000000      58.99792      58.99792
    2  H            1.0    -0.0000000       0.21065       0.21065
    3  H            1.0     0.0000000       0.21065       0.21065
    4  H            1.0     0.0000000       0.21065       0.21065
    5  H            1.0     0.0000000       0.21065       0.21065

          ---------------------
          ELECTROSTATIC MOMENTS
          ---------------------

 POINT   1           X           Y           Z (BOHR)    CHARGE
                 0.000000   -0.000000    0.000000       -0.00 (A.U.)
         DX          DY          DZ         /D/  (DEBYE)
    -0.000000    0.000000   -0.000000    0.000000
 ...... END OF PROPERTY EVALUATION ......
 STEP CPU TIME =     0.00 TOTAL CPU TIME =          0.0 (      0.0 MIN)
 TOTAL WALL CLOCK TIME=          0.0 SECONDS, CPU UTILIZATION IS    98.42%
  $VIB   
          IVIB=   0 IATOM=   0 ICOORD=   0 E=      -40.1951719180
  0.000000000E+00 0.000000000E+00 0.000000000E+00-1.023413377E-05-1.023252201E-05
 -1.024651361E-05 1.022793401E-05 1.023424392E-05-1.025096534E-05-1.023332923E-05
  1.023379074E-05 1.024525904E-05 1.023385512E-05-1.023012329E-05 1.025057242E-05
 -1.816308568E-08 1.630333185E-08-5.858272762E-09
 ......END OF GEOMETRY SEARCH......
 STEP CPU TIME =     0.00 TOTAL CPU TIME =          0.0 (      0.0 MIN)
 TOTAL WALL CLOCK TIME=          0.0 SECONDS, CPU UTILIZATION IS    98.42%
               988967  WORDS OF DYNAMIC MEMORY USED
 EXECUTION OF GAMESS TERMINATED NORMALLY 19:56:02 20-OCT-2025    
----- accounting info -----
Files used on the parent node Macbooks-MacBook-Pro.local were:
-rw-r--r--  1 macbookpro  staff      385 Oct 20 19:56 /Users/macbookpro/local/gamess/scr/ch4_q0m1_uhf_631g_star.F05
-rw-r--r--  1 macbookpro  staff   540048 Oct 20 19:56 /Users/macbookpro/local/gamess/scr/ch4_q0m1_uhf_631g_star.F08
-rw-r--r--  1 macbookpro  staff  2061360 Oct 20 19:56 /Users/macbookpro/local/gamess/scr/ch4_q0m1_uhf_631g_star.F10
-rw-r--r--  1 macbookpro  staff    52357 Oct 20 19:56 /Users/macbookpro/local/gamess/scr/ch4_q0m1_uhf_631g_star.dat
Mon Oct 20 19:56:02 +07 2025
0.084u 0.052s 0:00.13 100.0%	0+0k 0+0io 46pf+0w
