1 : cho_q0m2_uhf_631g_star.inp
----- GAMESS execution script 'rungms' -----
This job is running on host Macbooks-MacBook-Pro.local
under operating system Darwin at Mon Oct 20 19:56:04 +07 2025
Available scratch disk space (Kbyte units) at beginning of the job is
Filesystem   1024-blocks      Used Available Capacity iused      ifree %iused  Mounted on
/dev/disk3s5   482797652 122169952 339923260    27% 1896306 3399232600    0%   /System/Volumes/Data
GAMESS temporary binary files will be written to /Users/macbookpro/local/gamess/scr
GAMESS supplementary output files will be written to /Users/macbookpro/local/gamess/scr
Copying input file /Users/macbookpro/sq2_data/cho_q0m2_uhf_631g_star.inp to your run's scratch directory...
          *******************************************************
          *                                                     *
          *          GAMESS VERSION = 30 JUN 2023 (R1)          *
          *                                                     *
          *              doi.org/10.1063/5.0005188              *
          *                                                     *
          **************** 64 BIT LINUX VERSION *****************

  GAMESS HAS BEEN MADE POSSIBLE WITH IMPORTANT CONTRIBUTIONS FROM
  THE FOLLOWING INDIVIDUALS (IN ALPHABETICAL ORDER):

     IVANA ADAMOVIC, CHRISTINE AIKENS, TOMOKO AKAMA,
     MELISA ALKAN, YURI ALEXEEV, YURIKO AOKI, POOJA ARORA,
     TOSHIO ASADA, ANDREY ASADCHEV, KIM K. BALDRIDGE,
     PRADIPTA BANDYOPADHYAY, TAYLOR A. BARNES, MARIA BARYSZ,
     ROB BELL, JONATHAN BENTZ, COLLEEN BERTONI,
     JERRY A. BOATZ, BRETT BODE, KURT BRORSEN, KURT R. BRORSEN,
     LAIMUTIS BYTAUTAS, CALEB CARLIN, LAURA CARRINGTON,
     GALINA CHABAN, BENOIT CHAMPAGNE, WEI CHEN, MAHITO CHIBA,
     DAN CHIPMAN, CHEOL HO CHOI, TANNER CULPITT,
     DIPAYAN DATTA, PAUL DAY, ALBERT DEFUSCO,
     NUWAN DESILVA, J. EMILIANO DEUSTUA,
     TIM DUDLEY, MICHEL DUPUIS, STEVEN T. ELBERT,
     DMITRI FEDOROV, KATHERINE FERRERAS, MICHAEL FILATOV,
     ALEX FINDLATER,GRAHAM FLETCHER, MARK FREITAG,
     CHRISTIAN FRIEDL, DAVID GARMER, 
     IGOR S. GERASIMOV, KURT GLAESEMANN,
     MARK S. GORDON, JEFFREY R. GOUR, FENG LONG GU,
     EMILIE B. GUIDEZ, ANASTASIA GUNINA, SHARON HAMMES-SCHIFFER,
     MASATAKE HARUTA, KIMIHIKO HIRAO, YASUHIRO IKABATA,
     TZVETELIN IORDANOV, STEPHAN IRLE, KAZUYA ISHIMURA,
     JOE IVANIC, FRANK JENSEN, JAN H. JENSEN, VISVALDAS KAIRYS,
     MUNEAKI KAMIYA, MICHIO KATOUDA, NAOAKI KAWAKAMI, DAN KEMP,
     BERNARD KIRTMAN, KAZUO KITAURA, MARIUSZ KLOBUKOWSKI,
     MASATO KOBAYASHI, KONSTANTIN KOMAROV, PRAKASHAN KORAMBATH,
     JACEK KORCHOWIEC, SHIRO KOSEKI, KAROL KOWALSKI,
     JIMMY KROMANN, STANISLAW A. KUCHARSKI, HENRY KURTZ,
     SAROM SOK LEANG, SEUNGHOON LEE, HUI LI, SHUHUA LI, WEI LI,
     JESSE J. LUTZ, ALEKSANDR O. LYKHIN,
     ILIAS MAGOULAS, MARCIN MAKOWSKI,
     JOANI MATO, NIKITA MATSUNAGA, BENEDETTA MENNUCCI,
     GRANT MERRILL, NORIYUKI MINEZAWA, VLADIMIR MIRONOV,
     EISAKU MIYOSHI, JOHN A. MONTGOMERY JR., HIROTOSHI MORI,
     JONATHAN MULLIN, MONIKA MUSIAL, SHIGERU NAGASE,
     TAKESHI NAGATA, HIROMI NAKAI, TAKAHITO NAKAJIMA,
     YUYA NAKAJIMA, HARUYUKI NAKANO, HIROYA NAKATA, SEAN NEDD,
     HEATHER NETZLOFF, KIET A. NGUYEN, YOSHIO NISHIMOTO,
     BOSILJKA NJEGIC, RYAN OLSON, MIKE PAK, ROBERTO PEVERATI,
     BUU PHAM, PIOTR PIECUCH, ANNA POMOGAEVA, DAVID POOLE,
     SPENCER PRUITT, OLIVIER QUINET, LUKE ROSKOP,
     KLAUS RUEDENBERG, ANDREW SAND, TOSAPORN SATTASATHUCHANA,
     NOZOMI SAWADA, MICHAEL W. SCHMIDT, PATRICK E. SCHNEIDER,
     JUNJI SEINO, PRACHI SHARMA, JUN SHEN, JIM SHOEMAKER,
     YINAN SHU, DEJUN SI, JONATHAN SKONE, LYUDMILA SLIPCHENKO,
     TONY SMITH, JIE SONG, MARK SPACKMAN, CASPER STEINMANN,
     WALT STEVENS, PEIFENG SU, SHUJUN SU, CHET SWALINA,
     CHINAMI TAKASHIMA, TETSUYA TAKETSUGU, ZHEN TAO,
     NANDUN THELLAMUREGE, SEIKEN TOKURA, JACOPO TOMASI,
     TSUGUKI TOUMA, TAKAO TSUNEDA, HIROAKI UMEDA,
     JORGE LUIS GALVEZ VALLEJO, YALI WANG, SIMON WEBB,
     AARON WEST, THERESA L. WINDUS, MARTA WLOCH,
     PENG XU, KIYOSHI YAGI, SUSUMU YANAGISAWA, YANG YANG,
     SOOHAENG YOO, TAKESHI YOSHIKAWA, FEDERICO ZAHARIEV,
     TOBY ZENG

  WHO ARE SUPPORTED BY THEIR INSTITUTION/UNIVERSITY/COMPANY/GROUP
  (IN ALPHABETICAL ORDER):

     EP ANALYTICS,
     FACULTES UNIVERSITAIRES NOTRE-DAME DE LA PAIX,
     INSTITUTE FOR MOLECULAR SCIENCE, IOWA STATE UNIVERSITY,
     JACKSON STATE UNIVERSITY, JOHANNES KEPLER UNIVERSITY LINZ,
     KYUNGPOOK NATIONAL UNIVERSITY
     KYUSHU UNIVERSITY, MICHIGAN STATE UNIVERSITY,
     MIE UNIVERSITY, THE MOLECULAR SCIENCES SOFTWARE INSTITUTE,
     MOSCOW STATE UNIVERSITY,
     N. COPERNICUS UNIVERSITY, NAGOYA UNIVERSITY,
     NANJING UNIVERSITY, NAT. INST. OF ADVANCED INDUSTRIAL
     SCIENCE AND TECHNOLOGY, NATIONAL INST. OF STANDARDS AND
     TECHNOLOGY, NESMEYANOV INSTITUTE OF ORGANOELEMENT COMPOUNDS
     OF RUSSIAN ACADEMY OF SCIENCES, OSAKA PREFECTURE UNIVERSITY,
     PENNSYLVANIA STATE UNIVERSITY, TOKYO INSTITUTE OF TECHNOLOGY,
     UNIVERSITY OF AARHUS, UNIVERSITY OF ALBERTA,
     UNIVERSITY OF CALIFORNIA AT SANTA BARBARA,
     UNIVERSITY OF COPENHAGEN, UNIVERSITY OF IOWA,
     UNIVERSITY OF MEMPHIS, UNIVERSITY OF MINNESOTA,
     UNIVERSITY OF NEBRASKA, UNIVERSITY OF NEW ENGLAND,
     UNIVERSITY OF NOTRE DAME, UNIVERSITY OF PISA,
     UNIVERSITY OF SILESIA, UNIVERSITY OF TOKYO,
     UNIVERSITY OF ZURICH, WASEDA UNIVERSITY,
     YALE UNIVERSITY

  GAMESS SOFTWARE MANAGEMENT TEAM FOR THIS RELEASE:
     MARK S. GORDON (TEAM LEAD),
     BRETT BODE (SENIOR ADVISOR),
     GIUSEPPE BARCA,
     COLLEEN BERTONI,
     KRISTOPHER KEIPERT (ADVISOR),
     SAROM S. LEANG (DEVELOPMENT LEAD),
     BUU PHAM,
     JACKSON HAYES (WEBSITE ADMINISTRATOR),
     PENG XU

 EXECUTION OF GAMESS BEGUN 19:56:04 20-OCT-2025    

            ECHO OF THE FIRST FEW INPUT CARDS -
 INPUT CARD> $CONTRL SCFTYP=UHF ICHARG=0 MULT=2                                             
 INPUT CARD> RUNTYP=OPTIMIZE                                                                
 INPUT CARD> $END                                                                           
 INPUT CARD> $BASIS GBASIS=N31 NGAUSS=6 NDFUNC=1 $END                                       
 INPUT CARD> $DATA                                                                          
 INPUT CARD> ... this is comment ...                                                        
 INPUT CARD> C1                                                                             
 INPUT CARD> C     6   0.06418122   0.59429761   0.00000000                                 
 INPUT CARD> O     8   0.06030668  -0.59761976  -0.00000000                                 
 INPUT CARD> H     1  -0.87269390   1.21439215   0.00000000                                 
 INPUT CARD> $END                                                                           
 INPUT CARD>                                                                                
      1000000 WORDS OF MEMORY AVAILABLE

     BASIS OPTIONS
     -------------
     GBASIS=N31          IGAUSS=       6      POLAR=POPN31  
     NDFUNC=       1     NFFUNC=       0     DIFFSP=       F
     NPFUNC=       0      DIFFS=       F     BASNAM=        


     RUN TITLE
     ---------
  ... this is comment ...                                                        

 THE POINT GROUP OF THE MOLECULE IS C1      
 THE ORDER OF THE PRINCIPAL AXIS IS     0

 ATOM      ATOMIC                      COORDINATES (BOHR)
           CHARGE         X                   Y                   Z
 C           6.0     0.1212849194        1.1230596381        0.0000000000
 O           8.0     0.1139631004       -1.1293375912       -0.0000000000
 H           1.0    -1.6491523422        2.2948684051        0.0000000000

          INTERNUCLEAR DISTANCES (ANGS.)
          ------------------------------

                1 C          2 O          3 H     

   1 C       0.0000000    1.1919237 *  1.1235000 *
   2 O       1.1919237 *  0.0000000    2.0381063 *
   3 H       1.1235000 *  2.0381063 *  0.0000000  

  * ... LESS THAN  3.000


     ATOMIC BASIS SET
     ----------------
 THE CONTRACTED PRIMITIVE FUNCTIONS HAVE BEEN UNNORMALIZED
 THE CONTRACTED BASIS FUNCTIONS ARE NOW NORMALIZED TO UNITY

  SHELL TYPE  PRIMITIVE        EXPONENT          CONTRACTION COEFFICIENT(S)

 C         

      1   S       1          3047.5248800    0.001834737132
      1   S       2           457.3695180    0.014037322813
      1   S       3           103.9486850    0.068842622264
      1   S       4            29.2101553    0.232184443216
      1   S       5             9.2866630    0.467941348435
      1   S       6             3.1639270    0.362311985337

      2   L       7             7.8682723   -0.119332419775    0.068999066591
      2   L       8             1.8812885   -0.160854151696    0.316423960957
      2   L       9             0.5442493    1.143456437840    0.744308290898

      3   L      10             0.1687145    1.000000000000    1.000000000000

      4   D      11             0.8000000    1.000000000000

 O         

      5   S      12          5484.6716600    0.001831074430
      5   S      13           825.2349460    0.013950172200
      5   S      14           188.0469580    0.068445078098
      5   S      15            52.9645000    0.232714335992
      5   S      16            16.8975704    0.470192897984
      5   S      17             5.7996353    0.358520852987

      6   L      18            15.5396162   -0.110777549525    0.070874268231
      6   L      19             3.5999336   -0.148026262701    0.339752839147
      6   L      20             1.0137618    1.130767015354    0.727158577316

      7   L      21             0.2700058    1.000000000000    1.000000000000

      8   D      22             0.8000000    1.000000000000

 H         

      9   S      23            18.7311370    0.033494604338
      9   S      24             2.8253944    0.234726953484
      9   S      25             0.6401217    0.813757326146

     10   S      26             0.1612778    1.000000000000

 TOTAL NUMBER OF BASIS SET SHELLS             =   10
 NUMBER OF CARTESIAN GAUSSIAN BASIS FUNCTIONS =   32
 NUMBER OF ELECTRONS                          =   15
 CHARGE OF MOLECULE                           =    0
 SPIN MULTIPLICITY                            =    2
 NUMBER OF OCCUPIED ORBITALS (ALPHA)          =    8
 NUMBER OF OCCUPIED ORBITALS (BETA )          =    7
 TOTAL NUMBER OF ATOMS                        =    3
 THE NUCLEAR REPULSION ENERGY IS       26.2136954749

     $CONTRL OPTIONS
     ---------------
 SCFTYP=UHF          RUNTYP=OPTIMIZE     EXETYP=RUN     
 MPLEVL=       0     CITYP =NONE         CCTYP =NONE         VBTYP =NONE    
 DFTTYP=NONE         TDDFT =NONE    
 MULT  =       2     ICHARG=       0     NZVAR =       0     COORD =UNIQUE  
 PP    =NONE         RELWFN=NONE         LOCAL =NONE         NUMGRD=       F
 ISPHER=      -1     NOSYM =       0     MAXIT =      30     UNITS =ANGS    
 PLTORB=       F     MOLPLT=       F     AIMPAC=       F     FRIEND=        
 NPRINT=       7     IREST =       0     GEOM  =INPUT   
 NORMF =       0     NORMP =       0     ITOL  =      20     ICUT  =       9
 INTTYP=BEST         GRDTYP=BEST         QMTTOL= 1.0E-06

     $SYSTEM OPTIONS
     ---------------
  REPLICATED MEMORY=     1000000 WORDS (ON EVERY NODE).
 DISTRIBUTED MEMDDI=           0 MILLION WORDS IN AGGREGATE,
 MEMDDI DISTRIBUTED OVER   1 PROCESSORS IS           0 WORDS/PROCESSOR.
 TOTAL MEMORY REQUESTED ON EACH PROCESSOR=     1000000 WORDS.
 TIMLIM=      525600.00 MINUTES, OR     365.0 DAYS.
 PARALL= F  BALTYP=  DLB     KDIAG=    0  COREFL= F
 MXSEQ2=     300 MXSEQ3=     150  mem10=         0  mem22=         0

          ----------------
          PROPERTIES INPUT
          ----------------

     MOMENTS            FIELD           POTENTIAL          DENSITY
 IEMOM =       1   IEFLD =       0   IEPOT =       0   IEDEN =       0
 WHERE =COMASS     WHERE =NUCLEI     WHERE =NUCLEI     WHERE =NUCLEI  
 OUTPUT=BOTH       OUTPUT=BOTH       OUTPUT=BOTH       OUTPUT=BOTH    
 IEMINT=       0   IEFINT=       0                     IEDINT=       0
                                                       MORB  =       0
          EXTRAPOLATION IN EFFECT
          SOSCF IN EFFECT
          DIIS or SOSCF will be reset if energy rises
 ORBITAL PRINTING OPTION: NPREO=     1    32     2     1

     -------------------------------
     INTEGRAL TRANSFORMATION OPTIONS
     -------------------------------
     NWORD  =            0
     CUTTRF = 1.0E-09     MPTRAN =       0
     DIRTRF =       F     AOINTS =DUP     

          ----------------------
          INTEGRAL INPUT OPTIONS
          ----------------------
 NOPK  =       1 NORDER=       0 SCHWRZ=       F

     ------------------------------------------
     THE POINT GROUP IS C1 , NAXIS= 0, ORDER= 1
     ------------------------------------------

     DIMENSIONS OF THE SYMMETRY SUBSPACES ARE
 A   =   32

 ..... DONE SETTING UP THE RUN .....
 STEP CPU TIME =     0.00 TOTAL CPU TIME =          0.0 (      0.0 MIN)
 TOTAL WALL CLOCK TIME=          0.0 SECONDS, CPU UTILIZATION IS    97.32%


          -----------------------------
          STATIONARY POINT LOCATION RUN
          -----------------------------

 OBTAINING INITIAL HESSIAN, HESS=GUESS   
 CARTESIAN COORDINATE OPTIMIZATION USING BADGER'S RULE FORCE CONSTANT GUESS

          PARAMETERS CONTROLLING GEOMETRY SEARCH ARE
          METHOD =QA                  UPHESS =BFGS    
          NNEG   =         0          NFRZ   =         0
          NSTEP  =        50          IFOLOW =         1
          HESS   =GUESS               RESTAR =         F
          IHREP  =         0          HSSEND =         F
          NPRT   =         0          NPUN   =         0
          OPTTOL = 1.000E-04          RMIN   = 1.500E-03
          RMAX   = 1.000E-01          RLIM   = 7.000E-02
          DXMAX  = 3.000E-01          PURIFY =         F
          MOVIE  =         F          TRUPD  =         T
          TRMAX  = 5.000E-01          TRMIN  = 5.000E-02
          ITBMAT =         5          STPT   =         F
          STSTEP = 1.000E-02          PROJCT=          T

 BEGINNING GEOMETRY SEARCH POINT NSERCH=   0 ...

 COORDINATES OF ALL ATOMS ARE (ANGS)
   ATOM   CHARGE       X              Y              Z
 ------------------------------------------------------------
 C           6.0   0.0641812200   0.5942976100   0.0000000000
 O           8.0   0.0603066800  -0.5976197600  -0.0000000000
 H           1.0  -0.8726939000   1.2143921500   0.0000000000

          ********************
          1 ELECTRON INTEGRALS
          ********************
 ...... END OF ONE-ELECTRON INTEGRALS ......
 STEP CPU TIME =     0.00 TOTAL CPU TIME =          0.0 (      0.0 MIN)
 TOTAL WALL CLOCK TIME=          0.0 SECONDS, CPU UTILIZATION IS    97.59%

          -------------
          GUESS OPTIONS
          -------------
          GUESS =HUCKEL            NORB  =       0          NORDER=       0
          MIX   =       F          PRTMO =       F          PUNMO =       F
          TOLZ  = 1.0E-08          TOLE  = 1.0E-05
          SYMDEN=       F          PURIFY=       F

 INITIAL GUESS ORBITALS GENERATED BY HUCKEL   ROUTINE.
 HUCKEL GUESS REQUIRES     10362 WORDS.

 SYMMETRIES FOR INITIAL GUESS ORBITALS FOLLOW.  ALPHA SET(S).
     8 ORBITALS ARE OCCUPIED (    2 CORE ORBITALS).
     3=A        4=A        5=A        6=A        7=A        8=A        9=A   
    10=A       11=A       12=A       13=A       14=A       15=A       16=A   
    17=A       18=A   

 SYMMETRIES FOR INITIAL GUESS ORBITALS FOLLOW.   BETA SET(S).
     7 ORBITALS ARE OCCUPIED (    2 CORE ORBITALS).
     3=A        4=A        5=A        6=A        7=A        8=A        9=A   
    10=A       11=A       12=A       13=A       14=A       15=A       16=A   
    17=A   
 ...... END OF INITIAL ORBITAL SELECTION ......
 STEP CPU TIME =     0.00 TOTAL CPU TIME =          0.0 (      0.0 MIN)
 TOTAL WALL CLOCK TIME=          0.0 SECONDS, CPU UTILIZATION IS    97.95%

                    ----------------------
                    AO INTEGRAL TECHNOLOGY
                    ----------------------
     S,P,L SHELL ROTATED AXIS INTEGRALS, REPROGRAMMED BY
        KAZUYA ISHIMURA (IMS) AND JOSE SIERRA (SYNSTAR).
     S,P,D,L SHELL ROTATED AXIS INTEGRALS PROGRAMMED BY
        KAZUYA ISHIMURA (INSTITUTE FOR MOLECULAR SCIENCE).
     S,P,D,F,G SHELL TO TOTAL QUARTET ANGULAR MOMENTUM SUM 5,
        ERIC PROGRAM BY GRAHAM FLETCHER (ELORET AND NASA ADVANCED
        SUPERCOMPUTING DIVISION, AMES RESEARCH CENTER).
     S,P,D,F,G,L SHELL GENERAL RYS QUADRATURE PROGRAMMED BY
        MICHEL DUPUIS (PACIFIC NORTHWEST NATIONAL LABORATORY).

          --------------------
          2 ELECTRON INTEGRALS
          --------------------

 THE -PK- OPTION IS OFF, THE INTEGRALS ARE NOT IN SUPERMATRIX FORM.
 STORING   15000 INTEGRALS/RECORD ON DISK, USING 12 BYTES/INTEGRAL.
 TWO ELECTRON INTEGRAL EVALUATION REQUIRES   90451 WORDS OF MEMORY.
 II,JST,KST,LST =  1  1  1  1 NREC =         1 INTLOC =    1
 II,JST,KST,LST =  2  1  1  1 NREC =         1 INTLOC =    2
 II,JST,KST,LST =  3  1  1  1 NREC =         1 INTLOC =   34
 II,JST,KST,LST =  4  1  1  1 NREC =         1 INTLOC =  214
 II,JST,KST,LST =  5  1  1  1 NREC =         1 INTLOC = 1189
 II,JST,KST,LST =  6  1  1  1 NREC =         1 INTLOC = 2358
 II,JST,KST,LST =  7  1  1  1 NREC =         1 INTLOC = 9251
 II,JST,KST,LST =  8  1  1  1 NREC =         2 INTLOC = 6287
 II,JST,KST,LST =  9  1  1  1 NREC =         4 INTLOC = 7011
 II,JST,KST,LST = 10  1  1  1 NREC =         5 INTLOC =  376
 TOTAL NUMBER OF NONZERO TWO-ELECTRON INTEGRALS =               69671
          5 INTEGRAL RECORDS WERE STORED ON DISK FILE  8.
  ...... END OF TWO-ELECTRON INTEGRALS .....
 STEP CPU TIME =     0.01 TOTAL CPU TIME =          0.0 (      0.0 MIN)
 TOTAL WALL CLOCK TIME=          0.0 SECONDS, CPU UTILIZATION IS    99.23%

          ---------------------------
                  UHF SCF CALCULATION
          ---------------------------

     NUCLEAR ENERGY =        26.2136954749
     MAXIT = 30     NPUNCH=  2     MULT=  2
     EXTRAP=T  DAMP=F  SHIFT=F  RSTRCT=F  DIIS=F  SOSCF=T
     DENSITY MATRIX CONV=  1.00E-05
     SOSCF WILL OPTIMIZE     192 ALPHA AND     175 BETA ROTATION ANGLES.
     SOGTOL= 2.500E-01
     MEMORY REQUIRED FOR UHF/ROHF ITERS=     43321 WORDS.

 ITER EX      TOTAL ENERGY        E CHANGE  DENSITY CHANGE    ORB. GRAD 
   1  0     -112.9020818639  -112.9020818639   0.248872062   0.000000000
          ---------------START SECOND ORDER SCF---------------
   2  1     -113.2261900075    -0.3241081437   0.105305508   0.037727869
   3  2     -113.2404241581    -0.0142341506   0.063476381   0.024982344
   4  3     -113.2442636815    -0.0038395234   0.013791029   0.006528731
   5  4     -113.2447463866    -0.0004827050   0.014037225   0.003588760
   6  5     -113.2449193073    -0.0001729208   0.007539309   0.001323490
   7  6     -113.2449601639    -0.0000408566   0.003938121   0.001413320
   8  7     -113.2449786219    -0.0000184579   0.006035975   0.001293757
   9  8     -113.2449975379    -0.0000189161   0.007295087   0.000927246
  10  9     -113.2450149860    -0.0000174481   0.006560095   0.000754227
  11 10     -113.2450273431    -0.0000123571   0.002490763   0.000488412
  12 11     -113.2450314651    -0.0000041219   0.000462710   0.000178206
  13 12     -113.2450321587    -0.0000006937   0.000275603   0.000074359
  14 13     -113.2450322433    -0.0000000846   0.000131382   0.000033307
  15 14     -113.2450322583    -0.0000000150   0.000079466   0.000021210
  16 15     -113.2450322634    -0.0000000051   0.000046253   0.000013482
  17 16     -113.2450322653    -0.0000000018   0.000024136   0.000006539
  18 17     -113.2450322659    -0.0000000006   0.000013883   0.000002703
  19 18     -113.2450322660    -0.0000000001   0.000004167   0.000001430

          -----------------
          DENSITY CONVERGED
          -----------------
     TIME TO FORM FOCK OPERATORS=       0.0 SECONDS (       0.0 SEC/ITER)
     TIME TO SOLVE SCF EQUATIONS=       0.0 SECONDS (       0.0 SEC/ITER)

 FINAL UHF ENERGY IS     -113.2450322660 AFTER  19 ITERATIONS

          --------------------
          SPIN SZ   =    0.500
          S-SQUARED =    0.765
          --------------------

  ----- ALPHA SET ----- 

          ------------
          EIGENVECTORS
          ------------

                      1          2          3          4          5
                  -20.6279   -11.3606    -1.4462    -0.8565    -0.7029
                     A          A          A          A          A   
    1  C  1  S    0.000012   0.995546  -0.109954  -0.164374  -0.034138
    2  C  1  S    0.000438   0.027186   0.213315   0.356939   0.091089
    3  C  1  X   -0.000017  -0.000603  -0.002578  -0.086308   0.273707
    4  C  1  Y    0.000153  -0.001428  -0.181764   0.136736  -0.214583
    5  C  1  Z   -0.000000   0.000000   0.000000  -0.000000  -0.000000
    6  C  1  S   -0.000548  -0.005217   0.069126   0.338579   0.026272
    7  C  1  X   -0.000114   0.001518  -0.005995  -0.025144   0.096880
    8  C  1  Y    0.000570  -0.001196   0.014546   0.058064  -0.008372
    9  C  1  Z   -0.000000   0.000000   0.000000  -0.000000  -0.000000
   10  C  1 XX   -0.000058  -0.002229  -0.016270   0.020456  -0.023676
   11  C  1 YY   -0.000806  -0.001223   0.032648  -0.001851   0.011360
   12  C  1 ZZ    0.000022  -0.003082  -0.017918  -0.014371  -0.004906
   13  C  1 XY    0.000021   0.000271   0.002437  -0.007502  -0.001676
   14  C  1 XZ   -0.000000   0.000000   0.000000  -0.000000  -0.000000
   15  C  1 YZ   -0.000000   0.000000   0.000000  -0.000000  -0.000000
   16  O  2  S    0.994615  -0.000440  -0.199717   0.091685   0.052159
   17  O  2  S    0.021230   0.000394   0.454080  -0.209552  -0.122881
   18  O  2  X    0.000031   0.000109   0.005802  -0.051018   0.345258
   19  O  2  Y    0.001562   0.000299   0.140297   0.213937   0.360687
   20  O  2  Z   -0.000000   0.000000   0.000000  -0.000000  -0.000000
   21  O  2  S    0.004820  -0.001556   0.368946  -0.315998  -0.207473
   22  O  2  X    0.000036  -0.000350   0.000263  -0.023422   0.197113
   23  O  2  Y    0.000079  -0.001679   0.041946   0.095672   0.196030
   24  O  2  Z   -0.000000   0.000000   0.000000  -0.000000  -0.000000
   25  O  2 XX   -0.003914  -0.000039   0.003459  -0.006940  -0.010269
   26  O  2 YY   -0.003647  -0.000311   0.018399   0.015195   0.021101
   27  O  2 ZZ   -0.004366   0.000184  -0.002564   0.001972  -0.004300
   28  O  2 XY    0.000067   0.000019   0.001082  -0.005885   0.018158
   29  O  2 XZ   -0.000000   0.000000   0.000000  -0.000000  -0.000000
   30  O  2 YZ   -0.000000   0.000000   0.000000  -0.000000  -0.000000
   31  H  3  S   -0.000004  -0.000153   0.027019   0.226406  -0.165147
   32  H  3  S   -0.000178   0.002414  -0.008834   0.102229  -0.132838

                      6          7          8          9         10
                   -0.6403    -0.5613    -0.3918     0.1288     0.2675
                     A          A          A          A          A   
    1  C  1  S   -0.035796   0.000000   0.067308  -0.000000   0.087371
    2  C  1  S    0.074457   0.000000  -0.139546  -0.000000  -0.122648
    3  C  1  X    0.208623   0.000000  -0.397935  -0.000000   0.334768
    4  C  1  Y    0.340541   0.000000  -0.160847  -0.000000  -0.155700
    5  C  1  Z    0.000000   0.324004  -0.000000   0.426132  -0.000000
    6  C  1  S    0.205272   0.000000  -0.423944  -0.000000  -1.441763
    7  C  1  X    0.103665   0.000000  -0.267905  -0.000000   1.044767
    8  C  1  Y    0.106625   0.000000  -0.154269  -0.000000  -0.423603
    9  C  1  Z    0.000000   0.183540  -0.000000   0.709751  -0.000000
   10  C  1 XX    0.014509   0.000000   0.012902  -0.000000  -0.003813
   11  C  1 YY   -0.018671   0.000000   0.012673  -0.000000   0.002098
   12  C  1 ZZ    0.003990   0.000000  -0.003876  -0.000000  -0.000032
   13  C  1 XY   -0.021081   0.000000  -0.048004  -0.000000   0.006331
   14  C  1 XZ    0.000000  -0.001144  -0.000000  -0.002111  -0.000000
   15  C  1 YZ    0.000000  -0.037944  -0.000000   0.030031  -0.000000
   16  O  2  S   -0.030862   0.000000  -0.006089  -0.000000  -0.007323
   17  O  2  S    0.071291   0.000000   0.029911  -0.000000   0.007267
   18  O  2  X    0.387439   0.000000   0.428801  -0.000000  -0.121341
   19  O  2  Y   -0.338980   0.000000   0.071750  -0.000000   0.053815
   20  O  2  Z    0.000000   0.508557  -0.000000  -0.378603  -0.000000
   21  O  2  S    0.166187   0.000000  -0.019705  -0.000000   0.075503
   22  O  2  X    0.234727   0.000000   0.375337  -0.000000  -0.303124
   23  O  2  Y   -0.189062   0.000000   0.042180  -0.000000   0.098957
   24  O  2  Z    0.000000   0.354263  -0.000000  -0.518219  -0.000000
   25  O  2 XX    0.006665   0.000000   0.004004  -0.000000   0.000579
   26  O  2 YY   -0.022256   0.000000   0.005234  -0.000000  -0.000665
   27  O  2 ZZ    0.003597   0.000000   0.001655  -0.000000  -0.007987
   28  O  2 XY    0.019971   0.000000   0.006002  -0.000000   0.006008
   29  O  2 XZ    0.000000  -0.000595  -0.000000   0.000128  -0.000000
   30  O  2 YZ    0.000000   0.041595  -0.000000  -0.000726  -0.000000
   31  H  3  S    0.066865   0.000000   0.220221  -0.000000   0.011800
   32  H  3  S    0.052559   0.000000   0.325908  -0.000000   2.115973

                     11         12         13         14         15
                    0.3814     0.6990     0.7255     0.8360     0.9596
                     A          A          A          A          A   
    1  C  1  S    0.041942   0.015586  -0.000000  -0.042612   0.044667
    2  C  1  S    0.047303  -0.590119  -0.000000  -0.716029  -0.888270
    3  C  1  X   -0.037623  -0.855812  -0.000000   0.265891  -0.024599
    4  C  1  Y    0.096401  -0.324733  -0.000000  -0.348184   0.905497
    5  C  1  Z   -0.000000   0.000000  -1.059932   0.000000  -0.000000
    6  C  1  S   -1.827303   0.791583  -0.000000   1.674639   0.544883
    7  C  1  X   -0.076561   1.086783  -0.000000  -1.189341  -0.013735
    8  C  1  Y    2.041248   0.130214  -0.000000   0.787458  -0.546889
    9  C  1  Z   -0.000000   0.000000   1.111821   0.000000  -0.000000
   10  C  1 XX   -0.007636  -0.047945  -0.000000  -0.161829  -0.126565
   11  C  1 YY    0.001776  -0.058237  -0.000000  -0.087349   0.111712
   12  C  1 ZZ    0.001020  -0.049796  -0.000000   0.021934  -0.095561
   13  C  1 XY   -0.004296   0.003433  -0.000000   0.067356   0.006447
   14  C  1 XZ   -0.000000   0.000000  -0.003473   0.000000  -0.000000
   15  C  1 YZ   -0.000000   0.000000   0.015465   0.000000  -0.000000
   16  O  2  S   -0.108038   0.009609  -0.000000   0.007778  -0.053248
   17  O  2  S    0.047449  -0.081848  -0.000000  -0.178720   0.253167
   18  O  2  X   -0.005773  -0.032192  -0.000000   0.263788   0.046441
   19  O  2  Y    0.133990   0.021896  -0.000000   0.004138   0.259282
   20  O  2  Z   -0.000000   0.000000  -0.015917   0.000000  -0.000000
   21  O  2  S    2.333883  -0.094840  -0.000000   0.238299  -0.207272
   22  O  2  X    0.018718  -0.141670  -0.000000   0.109548  -0.039438
   23  O  2  Y    0.936926  -0.140699  -0.000000  -0.139344   0.577867
   24  O  2  Z   -0.000000   0.000000  -0.080848   0.000000  -0.000000
   25  O  2 XX   -0.075132  -0.017568  -0.000000  -0.066887   0.116510
   26  O  2 YY    0.005030  -0.023489  -0.000000  -0.037948  -0.168485
   27  O  2 ZZ   -0.080840  -0.017060  -0.000000  -0.029684   0.112557
   28  O  2 XY   -0.001588  -0.067215  -0.000000  -0.007294  -0.008824
   29  O  2 XZ   -0.000000   0.000000  -0.000869   0.000000  -0.000000
   30  O  2 YZ   -0.000000   0.000000  -0.090532   0.000000  -0.000000
   31  H  3  S    0.024873  -0.009747  -0.000000  -0.750195  -0.081384
   32  H  3  S   -0.284906   0.167977  -0.000000  -0.641339   0.008968

                     16         17         18         19         20
                    1.0491     1.0820     1.2476     1.2480     1.6084
                     A          A          A          A          A   
    1  C  1  S    0.054307  -0.046553   0.000000  -0.014088  -0.039876
    2  C  1  S   -0.737507  -0.666369   0.000000  -0.301136  -0.060303
    3  C  1  X    0.481571   0.228729   0.000000   0.173338  -0.000903
    4  C  1  Y   -0.385005  -0.191526   0.000000  -0.062921   0.184865
    5  C  1  Z   -0.000000  -0.000000   0.094355   0.000000   0.000000
    6  C  1  S    1.895894   1.036228   0.000000   0.732155  -2.844805
    7  C  1  X   -0.753226  -0.416282   0.000000  -1.009395   0.044435
    8  C  1  Y    0.385099   0.232974   0.000000   0.323170   1.782446
    9  C  1  Z   -0.000000  -0.000000  -0.483486   0.000000   0.000000
   10  C  1 XX   -0.018506   0.080946   0.000000  -0.096482   0.160047
   11  C  1 YY    0.097430  -0.328921   0.000000  -0.014780  -0.234032
   12  C  1 ZZ   -0.152149   0.018861   0.000000   0.054224   0.075844
   13  C  1 XY   -0.121288  -0.052698   0.000000   0.098845  -0.081785
   14  C  1 XZ   -0.000000  -0.000000   0.001792   0.000000   0.000000
   15  C  1 YZ   -0.000000  -0.000000   0.072697   0.000000   0.000000
   16  O  2  S   -0.006168   0.026246   0.000000  -0.003313  -0.104220
   17  O  2  S   -0.189764   0.534410   0.000000  -0.059734  -1.734637
   18  O  2  X   -0.016606  -0.002819   0.000000  -0.891863  -0.005506
   19  O  2  Y    0.382162  -0.634766   0.000000   0.008059  -0.319543
   20  O  2  Z   -0.000000  -0.000000  -0.967933   0.000000   0.000000
   21  O  2  S    0.061289  -1.028827   0.000000   0.138908   5.387227
   22  O  2  X   -0.007568   0.018740   0.000000   1.381294  -0.034102
   23  O  2  Y   -0.641399   0.849346   0.000000   0.016194   1.877044
   24  O  2  Z   -0.000000  -0.000000   1.244637   0.000000   0.000000
   25  O  2 XX   -0.070552   0.197604   0.000000  -0.039019  -0.385010
   26  O  2 YY   -0.163640   0.346979   0.000000  -0.026462  -0.577576
   27  O  2 ZZ   -0.061978   0.204447   0.000000   0.017245  -0.402792
   28  O  2 XY    0.084063   0.039983   0.000000  -0.059137   0.047902
   29  O  2 XZ   -0.000000  -0.000000  -0.003344   0.000000   0.000000
   30  O  2 YZ   -0.000000  -0.000000  -0.042756   0.000000   0.000000
   31  H  3  S    0.821373   0.363824   0.000000  -0.104025   0.085768
   32  H  3  S   -1.686512  -0.870664   0.000000  -0.631610  -0.029351

                     21         22         23         24         25
                    1.7636     1.7749     1.7975     1.9991     2.2261
                     A          A          A          A          A   
    1  C  1  S    0.000000   0.001161  -0.000000  -0.024916  -0.000000
    2  C  1  S    0.000000  -0.105588  -0.000000  -0.075436  -0.000000
    3  C  1  X    0.000000   0.179303  -0.000000  -0.173938  -0.000000
    4  C  1  Y    0.000000  -0.033312  -0.000000  -0.005185  -0.000000
    5  C  1  Z   -0.005997   0.000000   0.233120   0.000000  -0.000163
    6  C  1  S    0.000000   0.159353  -0.000000   0.646838  -0.000000
    7  C  1  X    0.000000  -0.247094  -0.000000  -0.347310  -0.000000
    8  C  1  Y    0.000000   0.152507  -0.000000   0.019953  -0.000000
    9  C  1  Z    0.007273   0.000000  -0.131559   0.000000  -0.004846
   10  C  1 XX    0.000000   0.535324  -0.000000   0.133979  -0.000000
   11  C  1 YY    0.000000  -0.020664  -0.000000   0.039900  -0.000000
   12  C  1 ZZ    0.000000  -0.514888  -0.000000  -0.223533  -0.000000
   13  C  1 XY    0.000000   0.428465  -0.000000  -0.411817  -0.000000
   14  C  1 XZ    0.790078   0.000000   0.014404   0.000000  -0.626971
   15  C  1 YZ   -0.013977   0.000000   0.670685   0.000000   0.005081
   16  O  2  S    0.000000  -0.003738  -0.000000   0.007962  -0.000000
   17  O  2  S    0.000000  -0.049567  -0.000000   0.131329  -0.000000
   18  O  2  X    0.000000   0.076194  -0.000000  -0.183420  -0.000000
   19  O  2  Y    0.000000   0.004077  -0.000000   0.006783  -0.000000
   20  O  2  Z   -0.003828   0.000000   0.189707   0.000000  -0.002838
   21  O  2  S    0.000000   0.166372  -0.000000  -0.435257  -0.000000
   22  O  2  X    0.000000   0.122486  -0.000000   0.218913  -0.000000
   23  O  2  Y    0.000000   0.037823  -0.000000  -0.166330  -0.000000
   24  O  2  Z   -0.001383   0.000000   0.074065   0.000000   0.006602
   25  O  2 XX    0.000000   0.333274  -0.000000   0.588916  -0.000000
   26  O  2 YY    0.000000  -0.023843  -0.000000   0.048049  -0.000000
   27  O  2 ZZ    0.000000  -0.353135  -0.000000  -0.568425  -0.000000
   28  O  2 XY    0.000000  -0.345261  -0.000000   0.427345  -0.000000
   29  O  2 XZ    0.517639   0.000000   0.007816   0.000000   0.865769
   30  O  2 YZ    0.006287   0.000000  -0.534198   0.000000   0.001749
   31  H  3  S    0.000000   0.050495  -0.000000  -0.527561  -0.000000
   32  H  3  S    0.000000  -0.260197  -0.000000  -0.113545  -0.000000

                     26         27         28         29         30
                    2.3565     2.6293     2.8874     2.9384     3.2835
                     A          A          A          A          A   
    1  C  1  S    0.032363  -0.092193  -0.000000   0.012557  -0.068596
    2  C  1  S    0.081730   0.043111  -0.000000  -0.079855  -1.381187
    3  C  1  X    0.122953   0.053479  -0.000000  -0.228287   0.005669
    4  C  1  Y   -0.023654  -0.104963  -0.000000  -0.093238   1.418775
    5  C  1  Z    0.000000   0.000000  -0.301601   0.000000  -0.000000
    6  C  1  S   -0.518775   0.160335  -0.000000   0.071797  -1.363182
    7  C  1  X    0.388132   0.103753  -0.000000  -0.250999   0.006737
    8  C  1  Y   -0.072423  -0.299520  -0.000000  -0.018840   0.773256
    9  C  1  Z    0.000000   0.000000  -0.276180   0.000000  -0.000000
   10  C  1 XX   -0.606270  -0.727607  -0.000000  -0.146503   0.293644
   11  C  1 YY   -0.073021   0.947018  -0.000000   0.165543  -0.782519
   12  C  1 ZZ    0.781077  -0.593660  -0.000000   0.098478   0.339561
   13  C  1 XY    0.099259  -0.054562  -0.000000   1.060162   0.044298
   14  C  1 XZ    0.000000   0.000000   0.005937   0.000000  -0.000000
   15  C  1 YZ    0.000000   0.000000   0.987729   0.000000  -0.000000
   16  O  2  S    0.001160  -0.011034  -0.000000   0.005562  -0.053794
   17  O  2  S   -0.041325  -0.610054  -0.000000  -0.095801  -0.609694
   18  O  2  X    0.103384   0.019388  -0.000000   0.046963   0.006920
   19  O  2  Y    0.039095  -0.694942  -0.000000  -0.091949   0.376254
   20  O  2  Z    0.000000   0.000000   0.021409   0.000000  -0.000000
   21  O  2  S    0.172007   0.399750  -0.000000   0.004363   2.912994
   22  O  2  X   -0.253674  -0.094192  -0.000000   0.436137   0.011408
   23  O  2  Y    0.047339   0.434985  -0.000000   0.011477   1.769205
   24  O  2  Z    0.000000   0.000000   0.485553   0.000000  -0.000000
   25  O  2 XX    0.587762  -0.223365  -0.000000   0.071934  -0.695161
   26  O  2 YY   -0.052853   0.053145  -0.000000  -0.052360   1.519488
   27  O  2 ZZ   -0.519310  -0.295687  -0.000000  -0.029545  -0.717697
   28  O  2 XY   -0.311758  -0.145155  -0.000000   0.993993   0.034315
   29  O  2 XZ    0.000000   0.000000   0.000474   0.000000  -0.000000
   30  O  2 YZ    0.000000   0.000000   1.057163   0.000000  -0.000000
   31  H  3  S    0.537966   0.144176  -0.000000   0.367759   0.068158
   32  H  3  S    0.096506  -0.000023  -0.000000  -0.253952  -0.034553

                     31         32
                    4.0801     4.3738
                     A          A   
    1  C  1  S    0.001436  -0.461071
    2  C  1  S   -0.178786   2.990192
    3  C  1  X    0.005993   0.049598
    4  C  1  Y   -0.083995   0.325818
    5  C  1  Z   -0.000000  -0.000000
    6  C  1  S   -1.788096   0.811941
    7  C  1  X    0.027070  -0.249470
    8  C  1  Y    1.039653   0.321412
    9  C  1  Z   -0.000000  -0.000000
   10  C  1 XX    0.076467  -1.721756
   11  C  1 YY    0.169489  -2.135298
   12  C  1 ZZ    0.119600  -1.694996
   13  C  1 XY    0.035327   0.064641
   14  C  1 XZ   -0.000000  -0.000000
   15  C  1 YZ   -0.000000  -0.000000
   16  O  2  S   -0.512321  -0.024495
   17  O  2  S   -0.050019   0.094173
   18  O  2  X    0.004866  -0.007751
   19  O  2  Y   -0.259228   0.284667
   20  O  2  Z   -0.000000  -0.000000
   21  O  2  S    5.187786   0.527782
   22  O  2  X   -0.004009   0.084081
   23  O  2  Y    1.028885   0.414637
   24  O  2  Z   -0.000000  -0.000000
   25  O  2 XX   -1.747696  -0.111008
   26  O  2 YY   -1.550788   0.244909
   27  O  2 ZZ   -1.754500  -0.133020
   28  O  2 XY    0.010764   0.047532
   29  O  2 XZ   -0.000000  -0.000000
   30  O  2 YZ   -0.000000  -0.000000
   31  H  3  S    0.081517   0.189477
   32  H  3  S   -0.017584  -0.505317

  ----- BETA SET ----- 

          ------------
          EIGENVECTORS
          ------------

                      1          2          3          4          5
                  -20.6175   -11.3405    -1.4203    -0.7946    -0.6560
                     A          A          A          A          A   
    1  C  1  S    0.000001   0.995970  -0.107816  -0.150969  -0.003422
    2  C  1  S    0.000353   0.024750   0.201289   0.318654   0.025079
    3  C  1  X    0.000046  -0.001084  -0.011983  -0.179614   0.192067
    4  C  1  Y    0.000234  -0.001702  -0.190129   0.075903  -0.350721
    5  C  1  Z   -0.000000   0.000000   0.000000   0.000000   0.000000
    6  C  1  S   -0.000426  -0.005461   0.062683   0.285873  -0.101951
    7  C  1  X   -0.000050   0.001523  -0.006788  -0.073712   0.075552
    8  C  1  Y    0.000438  -0.001102   0.012095   0.065581  -0.068730
    9  C  1  Z   -0.000000   0.000000   0.000000   0.000000   0.000000
   10  C  1 XX    0.000011  -0.002297  -0.018140   0.010165  -0.029313
   11  C  1 YY   -0.000811  -0.000482   0.036285   0.005547   0.020781
   12  C  1 ZZ   -0.000001  -0.002287  -0.017774  -0.011114  -0.005400
   13  C  1 XY   -0.000025  -0.000629  -0.001345  -0.020374   0.013776
   14  C  1 XZ   -0.000000   0.000000   0.000000   0.000000   0.000000
   15  C  1 YZ   -0.000000   0.000000   0.000000   0.000000   0.000000
   16  O  2  S    0.994815  -0.000466  -0.198703   0.092229   0.055935
   17  O  2  S    0.020611   0.000230   0.442600  -0.214476  -0.128363
   18  O  2  X   -0.000007  -0.000065  -0.013895  -0.080670   0.099392
   19  O  2  Y    0.001595   0.000204   0.144232   0.270157   0.451922
   20  O  2  Z   -0.000000   0.000000   0.000000   0.000000   0.000000
   21  O  2  S    0.004315  -0.001108   0.380078  -0.305843  -0.252217
   22  O  2  X    0.000000  -0.000474  -0.003752  -0.035664   0.061031
   23  O  2  Y    0.000083  -0.001457   0.048867   0.139764   0.255341
   24  O  2  Z   -0.000000   0.000000   0.000000   0.000000   0.000000
   25  O  2 XX   -0.004024   0.000005  -0.005763  -0.001368  -0.004635
   26  O  2 YY   -0.003253  -0.000287   0.021229   0.013805   0.027231
   27  O  2 ZZ   -0.003907   0.000066   0.002510  -0.006657  -0.008003
   28  O  2 XY   -0.000098  -0.000160  -0.002712  -0.007982   0.013793
   29  O  2 XZ   -0.000000   0.000000   0.000000   0.000000   0.000000
   30  O  2 YZ   -0.000000   0.000000   0.000000   0.000000   0.000000
   31  H  3  S   -0.000016  -0.000357   0.022776   0.203730  -0.176131
   32  H  3  S   -0.000108   0.002436  -0.008139   0.082538  -0.126871

                      6          7          8          9         10
                   -0.5671    -0.5156     0.1064     0.1571     0.3013
                     A          A          A          A          A   
    1  C  1  S    0.000000  -0.058705  -0.094838  -0.000000   0.075369
    2  C  1  S    0.000000   0.109623   0.087587  -0.000000  -0.129031
    3  C  1  X    0.000000   0.185533   0.260678  -0.000000   0.333449
    4  C  1  Y    0.000000   0.149768   0.181489  -0.000000  -0.114851
    5  C  1  Z    0.271312  -0.000000   0.000000   0.418958  -0.000000
    6  C  1  S    0.000000   0.179461   0.792351  -0.000000  -1.476252
    7  C  1  X    0.000000   0.122895   0.252780  -0.000000   1.089721
    8  C  1  Y    0.000000   0.065484   0.350937  -0.000000  -0.149353
    9  C  1  Z    0.145773  -0.000000   0.000000   0.753001  -0.000000
   10  C  1 XX    0.000000  -0.001546  -0.027398  -0.000000  -0.017958
   11  C  1 YY    0.000000  -0.004810  -0.017261  -0.000000   0.003910
   12  C  1 ZZ    0.000000   0.006393   0.006852  -0.000000   0.001881
   13  C  1 XY    0.000000  -0.053970   0.010337  -0.000000   0.010140
   14  C  1 XZ   -0.008350  -0.000000   0.000000  -0.020726  -0.000000
   15  C  1 YZ   -0.041220  -0.000000   0.000000   0.018126  -0.000000
   16  O  2  S    0.000000   0.004697   0.008784  -0.000000  -0.017046
   17  O  2  S    0.000000  -0.023253  -0.052452  -0.000000  -0.005950
   18  O  2  X    0.000000   0.517556  -0.292718  -0.000000  -0.160081
   19  O  2  Y    0.000000  -0.099254  -0.084795  -0.000000   0.054478
   20  O  2  Z    0.544347  -0.000000   0.000000  -0.343406  -0.000000
   21  O  2  S    0.000000   0.014138   0.073538  -0.000000   0.339475
   22  O  2  X    0.000000   0.386830  -0.338152  -0.000000  -0.374273
   23  O  2  Y    0.000000  -0.053001  -0.059330  -0.000000   0.177545
   24  O  2  Z    0.384452  -0.000000   0.000000  -0.485842  -0.000000
   25  O  2 XX    0.000000  -0.002393  -0.009232  -0.000000  -0.010661
   26  O  2 YY    0.000000  -0.005267  -0.011052  -0.000000  -0.008724
   27  O  2 ZZ    0.000000  -0.000496  -0.008661  -0.000000  -0.020805
   28  O  2 XY    0.000000   0.037607  -0.000358  -0.000000   0.003101
   29  O  2 XZ   -0.001060  -0.000000   0.000000   0.001600  -0.000000
   30  O  2 YZ    0.041411  -0.000000   0.000000   0.003635  -0.000000
   31  H  3  S    0.000000   0.061050  -0.169563  -0.000000  -0.039801
   32  H  3  S    0.000000   0.077736  -0.660248  -0.000000   2.026296

                     11         12         13         14         15
                    0.4006     0.7489     0.7911     0.8653     0.9828
                     A          A          A          A          A   
    1  C  1  S    0.037315   0.000000   0.035115  -0.039530  -0.037548
    2  C  1  S    0.089881   0.000000  -0.427803  -0.829577   1.031987
    3  C  1  X   -0.060450   0.000000  -0.971079   0.126983  -0.055746
    4  C  1  Y    0.091907   0.000000  -0.224155  -0.503956  -0.848331
    5  C  1  Z   -0.000000  -1.073967   0.000000   0.000000   0.000000
    6  C  1  S   -1.755271   0.000000   0.279111   1.909138  -0.779801
    7  C  1  X   -0.217694   0.000000   1.232625  -1.114165   0.232286
    8  C  1  Y    2.064950   0.000000  -0.024233   0.932270   0.355840
    9  C  1  Z   -0.000000   1.084673   0.000000   0.000000   0.000000
   10  C  1 XX    0.008487   0.000000  -0.021746  -0.152448   0.119327
   11  C  1 YY   -0.009696   0.000000  -0.052102  -0.123719  -0.062104
   12  C  1 ZZ    0.005064   0.000000  -0.069066   0.002345   0.095198
   13  C  1 XY   -0.011376   0.000000   0.021048   0.068661   0.003935
   14  C  1 XZ   -0.000000   0.010645   0.000000   0.000000   0.000000
   15  C  1 YZ   -0.000000   0.021453   0.000000   0.000000   0.000000
   16  O  2  S   -0.107492   0.000000   0.000907   0.010985   0.054695
   17  O  2  S    0.058660   0.000000  -0.046584  -0.202044  -0.271301
   18  O  2  X    0.018915   0.000000  -0.064666   0.242730  -0.046540
   19  O  2  Y    0.115884   0.000000   0.050653  -0.007677  -0.197701
   20  O  2  Z   -0.000000  -0.019300   0.000000   0.000000   0.000000
   21  O  2  S    2.313413   0.000000  -0.033951   0.261763   0.157443
   22  O  2  X    0.087559   0.000000  -0.090898   0.168273  -0.026964
   23  O  2  Y    0.928656   0.000000  -0.054194  -0.172541  -0.684515
   24  O  2  Z   -0.000000  -0.063996   0.000000   0.000000   0.000000
   25  O  2 XX   -0.077532   0.000000  -0.007464  -0.075646  -0.113612
   26  O  2 YY    0.017515   0.000000  -0.023690  -0.025420   0.144342
   27  O  2 ZZ   -0.072595   0.000000  -0.017090  -0.038934  -0.132782
   28  O  2 XY   -0.003262   0.000000  -0.084747  -0.017166   0.002578
   29  O  2 XZ   -0.000000   0.000389   0.000000   0.000000   0.000000
   30  O  2 YZ   -0.000000  -0.095036   0.000000   0.000000   0.000000
   31  H  3  S    0.051985   0.000000   0.102580  -0.656825   0.062032
   32  H  3  S   -0.491736   0.000000   0.353155  -0.836337   0.251943

                     16         17         18         19         20
                    1.0727     1.1144     1.2402     1.2970     1.6173
                     A          A          A          A          A   
    1  C  1  S    0.073554  -0.015750  -0.000000  -0.016064  -0.039194
    2  C  1  S   -0.375870  -0.769759  -0.000000  -0.247332  -0.064173
    3  C  1  X    0.298291   0.342706  -0.000000   0.201995   0.014019
    4  C  1  Y   -0.245371  -0.432770  -0.000000  -0.071944   0.163684
    5  C  1  Z   -0.000000  -0.000000   0.100825  -0.000000  -0.000000
    6  C  1  S    1.202768   1.572597  -0.000000   0.733517  -2.828278
    7  C  1  X   -0.461658  -0.509411  -0.000000  -0.973055   0.009382
    8  C  1  Y    0.217104   0.294030  -0.000000   0.249296   1.793165
    9  C  1  Z   -0.000000  -0.000000  -0.492783  -0.000000  -0.000000
   10  C  1 XX   -0.047685   0.085565  -0.000000  -0.074192   0.177795
   11  C  1 YY    0.236014  -0.244738  -0.000000  -0.025962  -0.232115
   12  C  1 ZZ   -0.150223  -0.052860  -0.000000   0.057699   0.064242
   13  C  1 XY   -0.086474  -0.096820  -0.000000   0.116744  -0.054624
   14  C  1 XZ   -0.000000  -0.000000   0.000664  -0.000000  -0.000000
   15  C  1 YZ   -0.000000  -0.000000   0.070498  -0.000000  -0.000000
   16  O  2  S   -0.018664   0.029144  -0.000000   0.003572  -0.103151
   17  O  2  S   -0.392455   0.391864  -0.000000   0.008304  -1.739160
   18  O  2  X   -0.045727  -0.013038  -0.000000  -0.929414  -0.033805
   19  O  2  Y    0.629467  -0.430099  -0.000000  -0.023967  -0.330323
   20  O  2  Z   -0.000000  -0.000000  -0.962578  -0.000000  -0.000000
   21  O  2  S    0.498258  -0.989564  -0.000000  -0.061956   5.384341
   22  O  2  X    0.025799  -0.043471  -0.000000   1.350184   0.003825
   23  O  2  Y   -0.935332   0.384529  -0.000000  -0.015654   1.872041
   24  O  2  Z   -0.000000  -0.000000   1.250200  -0.000000  -0.000000
   25  O  2 XX   -0.144958   0.144666  -0.000000  -0.016831  -0.378645
   26  O  2 YY   -0.304170   0.265686  -0.000000   0.010138  -0.575931
   27  O  2 ZZ   -0.143828   0.147618  -0.000000   0.030977  -0.413473
   28  O  2 XY    0.053820   0.072120  -0.000000  -0.065524   0.040056
   29  O  2 XZ   -0.000000  -0.000000   0.000691  -0.000000  -0.000000
   30  O  2 YZ   -0.000000  -0.000000  -0.040484  -0.000000  -0.000000
   31  H  3  S    0.604976   0.769691  -0.000000  -0.076366   0.105128
   32  H  3  S   -1.100062  -1.369420  -0.000000  -0.602749  -0.063260

                     21         22         23         24         25
                    1.7890     1.8230     1.8294     2.0309     2.2609
                     A          A          A          A          A   
    1  C  1  S   -0.000000   0.000000   0.005303  -0.022505  -0.000000
    2  C  1  S   -0.000000   0.000000   0.079396  -0.099640  -0.000000
    3  C  1  X   -0.000000   0.000000  -0.197540  -0.217076  -0.000000
    4  C  1  Y   -0.000000   0.000000   0.003555  -0.004670  -0.000000
    5  C  1  Z   -0.119570   0.221009   0.000000   0.000000  -0.024148
    6  C  1  S   -0.000000   0.000000  -0.255265   0.607356  -0.000000
    7  C  1  X   -0.000000   0.000000   0.246027  -0.330077  -0.000000
    8  C  1  Y   -0.000000   0.000000  -0.078527   0.036248  -0.000000
    9  C  1  Z    0.076020  -0.104314   0.000000   0.000000  -0.001745
   10  C  1 XX   -0.000000   0.000000  -0.517701   0.075920  -0.000000
   11  C  1 YY   -0.000000   0.000000  -0.007196   0.033117  -0.000000
   12  C  1 ZZ   -0.000000   0.000000   0.517784  -0.175515  -0.000000
   13  C  1 XY   -0.000000   0.000000  -0.370464  -0.447405  -0.000000
   14  C  1 XZ    0.646505   0.397425   0.000000   0.000000  -0.663925
   15  C  1 YZ   -0.370525   0.542544   0.000000   0.000000  -0.013689
   16  O  2  S   -0.000000   0.000000   0.000929   0.004081  -0.000000
   17  O  2  S   -0.000000   0.000000  -0.012325   0.121873  -0.000000
   18  O  2  X   -0.000000   0.000000  -0.081145  -0.205774  -0.000000
   19  O  2  Y   -0.000000   0.000000  -0.005574  -0.000851  -0.000000
   20  O  2  Z   -0.101538   0.153471   0.000000   0.000000  -0.004076
   21  O  2  S   -0.000000   0.000000   0.025708  -0.369224  -0.000000
   22  O  2  X   -0.000000   0.000000  -0.104051   0.220217  -0.000000
   23  O  2  Y   -0.000000   0.000000   0.018191  -0.131158  -0.000000
   24  O  2  Z   -0.044602   0.049870   0.000000   0.000000   0.005780
   25  O  2 XX   -0.000000   0.000000  -0.418549   0.537046  -0.000000
   26  O  2 YY   -0.000000   0.000000  -0.006919   0.054888  -0.000000
   27  O  2 ZZ   -0.000000   0.000000   0.423813  -0.532472  -0.000000
   28  O  2 XY   -0.000000   0.000000   0.320360   0.468474  -0.000000
   29  O  2 XZ    0.450896   0.331863   0.000000   0.000000   0.839127
   30  O  2 YZ    0.292480  -0.463422   0.000000   0.000000   0.026499
   31  H  3  S   -0.000000   0.000000  -0.005431  -0.530986  -0.000000
   32  H  3  S   -0.000000   0.000000   0.237760  -0.101562  -0.000000

                     26         27         28         29         30
                    2.3901     2.6588     2.8980     2.9804     3.2933
                     A          A          A          A          A   
    1  C  1  S    0.034112  -0.090968  -0.000000   0.009259  -0.067390
    2  C  1  S    0.056873   0.037443  -0.000000  -0.071146  -1.387116
    3  C  1  X    0.113028   0.047911  -0.000000  -0.222882   0.008027
    4  C  1  Y   -0.006225  -0.093270  -0.000000  -0.079310   1.418311
    5  C  1  Z   -0.000000   0.000000  -0.296374   0.000000  -0.000000
    6  C  1  S   -0.535551   0.142207  -0.000000   0.079680  -1.366759
    7  C  1  X    0.386306   0.109570  -0.000000  -0.247638   0.007365
    8  C  1  Y   -0.063864  -0.291202  -0.000000  -0.028925   0.771667
    9  C  1  Z   -0.000000   0.000000  -0.276987   0.000000  -0.000000
   10  C  1 XX   -0.615076  -0.739897  -0.000000  -0.155686   0.302371
   11  C  1 YY   -0.076888   0.942502  -0.000000   0.183540  -0.780205
   12  C  1 ZZ    0.805637  -0.580922  -0.000000   0.076093   0.343168
   13  C  1 XY    0.087848  -0.078147  -0.000000   1.066772   0.040827
   14  C  1 XZ   -0.000000   0.000000   0.015992   0.000000  -0.000000
   15  C  1 YZ   -0.000000   0.000000   0.997108   0.000000  -0.000000
   16  O  2  S   -0.001835  -0.012522  -0.000000   0.004017  -0.053380
   17  O  2  S   -0.036255  -0.611361  -0.000000  -0.096187  -0.610225
   18  O  2  X    0.106847   0.012340  -0.000000   0.051933   0.007480
   19  O  2  Y    0.046289  -0.685965  -0.000000  -0.098295   0.378551
   20  O  2  Z   -0.000000   0.000000   0.023201   0.000000  -0.000000
   21  O  2  S    0.203072   0.427753  -0.000000   0.003494   2.910991
   22  O  2  X   -0.252403  -0.098407  -0.000000   0.430015   0.009161
   23  O  2  Y    0.063238   0.441288  -0.000000   0.015562   1.766322
   24  O  2  Z   -0.000000   0.000000   0.485338   0.000000  -0.000000
   25  O  2 XX    0.573824  -0.236242  -0.000000   0.064686  -0.704994
   26  O  2 YY   -0.045698   0.053781  -0.000000  -0.046192   1.517900
   27  O  2 ZZ   -0.514649  -0.294449  -0.000000  -0.036741  -0.708216
   28  O  2 XY   -0.292772  -0.163831  -0.000000   0.985170   0.033077
   29  O  2 XZ   -0.000000   0.000000   0.001022   0.000000  -0.000000
   30  O  2 YZ   -0.000000   0.000000   1.049454   0.000000  -0.000000
   31  H  3  S    0.534491   0.133747  -0.000000   0.370059   0.067311
   32  H  3  S    0.098827   0.008234  -0.000000  -0.251626  -0.031845

                     31         32
                    4.0896     4.4054
                     A          A   
    1  C  1  S    0.000976  -0.461533
    2  C  1  S   -0.174206   2.994285
    3  C  1  X    0.006409   0.059890
    4  C  1  Y   -0.084256   0.333634
    5  C  1  Z   -0.000000   0.000000
    6  C  1  S   -1.785021   0.798429
    7  C  1  X    0.026616  -0.253526
    8  C  1  Y    1.038992   0.321987
    9  C  1  Z   -0.000000   0.000000
   10  C  1 XX    0.076197  -1.720285
   11  C  1 YY    0.165793  -2.137882
   12  C  1 ZZ    0.117654  -1.692548
   13  C  1 XY    0.034112   0.064645
   14  C  1 XZ   -0.000000   0.000000
   15  C  1 YZ   -0.000000   0.000000
   16  O  2  S   -0.512307  -0.024266
   17  O  2  S   -0.045288   0.091709
   18  O  2  X    0.006126  -0.007590
   19  O  2  Y   -0.258262   0.285761
   20  O  2  Z   -0.000000   0.000000
   21  O  2  S    5.180949   0.536097
   22  O  2  X   -0.004629   0.083776
   23  O  2  Y    1.027422   0.420872
   24  O  2  Z   -0.000000   0.000000
   25  O  2 XX   -1.747545  -0.109959
   26  O  2 YY   -1.550151   0.249780
   27  O  2 ZZ   -1.752215  -0.133807
   28  O  2 XY    0.010310   0.044966
   29  O  2 XZ   -0.000000   0.000000
   30  O  2 YZ   -0.000000   0.000000
   31  H  3  S    0.081039   0.191601
   32  H  3  S   -0.018175  -0.504306
 ...... END OF UHF CALCULATION ......
 STEP CPU TIME =     0.01 TOTAL CPU TIME =          0.0 (      0.0 MIN)
 TOTAL WALL CLOCK TIME=          0.0 SECONDS, CPU UTILIZATION IS    98.02%

     ----------------------------------------------------------------
     PROPERTY VALUES FOR THE UHF   SELF-CONSISTENT FIELD WAVEFUNCTION
     ----------------------------------------------------------------

          -----------------
          ENERGY COMPONENTS
          -----------------

         WAVEFUNCTION NORMALIZATION =       1.0000000000

                ONE ELECTRON ENERGY =    -206.4184415254
                TWO ELECTRON ENERGY =      66.9597137845
           NUCLEAR REPULSION ENERGY =      26.2136954749
                                      ------------------
                       TOTAL ENERGY =    -113.2450322660

 ELECTRON-ELECTRON POTENTIAL ENERGY =      66.9597137845
  NUCLEUS-ELECTRON POTENTIAL ENERGY =    -319.2545962979
   NUCLEUS-NUCLEUS POTENTIAL ENERGY =      26.2136954749
                                      ------------------
             TOTAL POTENTIAL ENERGY =    -226.0811870385
               TOTAL KINETIC ENERGY =     112.8361547725
                 VIRIAL RATIO (V/T) =       2.0036236390

  ...... PI ENERGY ANALYSIS ......

 ENERGY ANALYSIS:
            FOCK ENERGY=    -72.4990118053
          BARE H ENERGY=   -206.4184415254
     ELECTRONIC ENERGY =   -139.4587266654
         KINETIC ENERGY=    112.8361547725
          N-N REPULSION=     26.2136954749
           TOTAL ENERGY=   -113.2450311904
        SIGMA PART(1+2)=   -130.3951709572
               (K,V1,2)=    109.1295511873   -298.5492952016     59.0245730571
           PI PART(1+2)=     -9.0635557081
               (K,V1,2)=      3.7066035852    -20.7053010963      7.9351418029
  SIGMA SKELETON, ERROR=   -104.1814754823     -0.0000000000
             MIXED PART= 0.00000E+00 0.00000E+00 0.00000E+00 0.00000E+00
 ...... END OF PI ENERGY ANALYSIS ......

          ---------------------------------------
          MULLIKEN AND LOWDIN POPULATION ANALYSES
          ---------------------------------------

     ATOMIC MULLIKEN POPULATION IN EACH MOLECULAR ORBITAL
        ALPHA ORBITALS

                      1          2          3          4          5

                  1.000000   1.000000   1.000000   1.000000   1.000000

    1            -0.000143   1.000189   0.243308   0.536526   0.269366
    2             1.000145  -0.000414   0.756495   0.262000   0.620069
    3            -0.000002   0.000224   0.000197   0.201474   0.110565

                      6          7          8

                  1.000000   1.000000   1.000000

    1             0.380768   0.320649   0.499037
    2             0.599128   0.679351   0.338818
    3             0.020104   0.000000   0.162145

     ATOMIC MULLIKEN POPULATION IN EACH MOLECULAR ORBITAL
         BETA ORBITALS

                      1          2          3          4          5

                  1.000000   1.000000   1.000000   1.000000   1.000000

    1            -0.000129   1.000126   0.240678   0.476411   0.317986
    2             1.000131  -0.000345   0.759417   0.354610   0.545755
    3            -0.000001   0.000219  -0.000095   0.168979   0.136259

                      6          7

                  1.000000   1.000000

    1             0.242976   0.276766
    2             0.757024   0.704675
    3             0.000000   0.018559

     ATOMIC SPIN POPULATION (ALPHA MINUS BETA)
       ATOM         MULL.POP.                    LOW.POP.
    1 C             0.694878                     0.696310
    2 O             0.134335                     0.178008
    3 H             0.170787                     0.125683


          ********* ALL ELECTRONS ********

               ----- POPULATIONS IN EACH AO -----
                             MULLIKEN      LOWDIN
              1  C  1  S      1.99691     1.97689
              2  C  1  S      0.72855     0.40108
              3  C  1  X      0.63685     0.57195
              4  C  1  Y      0.73250     0.67385
              5  C  1  Z      0.33560     0.30561
              6  C  1  S      0.63721     0.42674
              7  C  1  X      0.33478     0.42971
              8  C  1  Y      0.11082     0.29063
              9  C  1  Z      0.20810     0.26619
             10  C  1 XX      0.00789     0.16288
             11  C  1 YY      0.04063     0.22892
             12  C  1 ZZ     -0.02124     0.12781
             13  C  1 XY      0.03598     0.07018
             14  C  1 XZ      0.00008     0.00008
             15  C  1 YZ      0.01984     0.03363
             16  O  2  S      1.99564     1.97795
             17  O  2  S      0.93124     0.72255
             18  O  2  X      1.03184     0.99074
             19  O  2  Y      0.95348     0.88855
             20  O  2  Z      0.81579     0.76815
             21  O  2  S      0.91033     0.47155
             22  O  2  X      0.65694     0.66525
             23  O  2  Y      0.42501     0.52925
             24  O  2  Z      0.60684     0.61214
             25  O  2 XX      0.00341     0.16909
             26  O  2 YY      0.01948     0.19654
             27  O  2 ZZ      0.00324     0.16894
             28  O  2 XY      0.00986     0.01885
             29  O  2 XZ      0.00000     0.00000
             30  O  2 YZ      0.01374     0.01418
             31  H  3  S      0.50545     0.46307
             32  H  3  S      0.31317     0.37702

          ----- MULLIKEN ATOMIC OVERLAP POPULATIONS -----
          (OFF-DIAGONAL ELEMENTS NEED TO BE MULTIPLIED BY 2)

             1           2           3

    1    5.0152678
    2    0.5154809   7.9074304
    3    0.2737683  -0.0460536   0.5909107

          TOTAL MULLIKEN AND LOWDIN ATOMIC POPULATIONS
       ATOM         MULL.POP.    CHARGE          LOW.POP.     CHARGE
    1 C             5.804517    0.195483         5.966156    0.033844
    2 O             8.376858   -0.376858         8.193744   -0.193744
    3 H             0.818625    0.181375         0.840100    0.159900

          -------------------------------
          BOND ORDER AND VALENCE ANALYSIS     BOND ORDER THRESHOLD=0.050
          -------------------------------

                   BOND                       BOND                       BOND
  ATOM PAIR DIST  ORDER      ATOM PAIR DIST  ORDER      ATOM PAIR DIST  ORDER
    1   2  1.192  2.077        1   3  1.123  0.881

                       TOTAL       BONDED        FREE
      ATOM            VALENCE     VALENCE     VALENCE
    1 C                 3.473       2.958       0.516
    2 O                 2.160       2.084       0.075
    3 H                 0.919       0.889       0.030

          -----------------------------------------
          ATOMIC SPIN DENSITY AT THE NUCLEUS (A.U.)
          -----------------------------------------
                            SPIN DENS    ALPHA DENS     BETA DENS
    1  C            6.0     0.3913245      59.46679      59.07547
    2  O            8.0     0.0781183     145.49885     145.42073
    3  H            1.0     0.0813740       0.23983       0.15845

          ---------------------
          ELECTROSTATIC MOMENTS
          ---------------------

 POINT   1           X           Y           Z (BOHR)    CHARGE
                 0.055725   -0.078410    0.000000       -0.00 (A.U.)
         DX          DY          DZ         /D/  (DEBYE)
    -0.866200    2.023164    0.000000    2.200794
 ...... END OF PROPERTY EVALUATION ......
 STEP CPU TIME =     0.00 TOTAL CPU TIME =          0.0 (      0.0 MIN)
 TOTAL WALL CLOCK TIME=          0.0 SECONDS, CPU UTILIZATION IS    98.12%

 BEGINNING ONE ELECTRON GRADIENT...
 ..... END OF 1-ELECTRON GRADIENT ......
 STEP CPU TIME =     0.00 TOTAL CPU TIME =          0.0 (      0.0 MIN)
 TOTAL WALL CLOCK TIME=          0.0 SECONDS, CPU UTILIZATION IS    98.16%

          ----------------------
          GRADIENT OF THE ENERGY
          ----------------------

 THE MINIMUM MEMORY REQUIRED FOR THIS RUN IS      74522 WORDS.
 USING     989072 WORDS FOR 2E- DERIVATIVE INTEGRAL CONTRIBUTIONS.
 THE COARSE/FINE SCHWARZ SCREENINGS SKIPPED            0/           0 BLOCKS.
 THE NUMBER OF GRADIENT INTEGRAL BLOCKS COMPUTED WAS      1424
 ...... END OF 2-ELECTRON GRADIENT ......
 STEP CPU TIME =     0.01 TOTAL CPU TIME =          0.0 (      0.0 MIN)
 TOTAL WALL CLOCK TIME=          0.0 SECONDS, CPU UTILIZATION IS    98.76%

          NSERCH=  0     ENERGY=    -113.2450323

                                 -----------------------
                                 GRADIENT (HARTREE/BOHR)
                                 -----------------------
        ATOM     ZNUC       DE/DX         DE/DY         DE/DZ
 --------------------------------------------------------------
    1  C            6.0     0.0159125     0.0650005     0.0000000
    2  O            8.0    -0.0039814    -0.0681143     0.0000000
    3  H            1.0    -0.0119311     0.0031138     0.0000000

          MAXIMUM GRADIENT = 0.0681143    RMS GRADIENT = 0.0321208

 NSERCH:   0  E=     -113.2450322660  GRAD. MAX=  0.0681143  R.M.S.=  0.0321208

          FORCE CONSTANT MATRIX NOT UPDATED --- TAKING FIRST STEP
          MIN SEARCH, CORRECT HESSIAN, TRYING PURE NR STEP
               NR STEP HAS LENGTH         =   0.331240
          TRIM/QA LAMBDA FOR NON-TS MODES =  -0.00437169
          TRIM/QA STEP HAS LENGTH         =   0.300000
          RADIUS OF STEP TAKEN=   0.30000  CURRENT TRUST RADIUS=   0.30000

 BEGINNING GEOMETRY SEARCH POINT NSERCH=   1 ...

 COORDINATES OF ALL ATOMS ARE (ANGS)
   ATOM   CHARGE       X              Y              Z
 ------------------------------------------------------------
 C           6.0  -0.0344760392   0.5250651651   0.0000000000
 O           8.0   0.1304217009  -0.5987025783   0.0000000000
 H           1.0  -0.8441516617   1.2847074132   0.0000000000

          INTERNUCLEAR DISTANCES (ANGS.)
          ------------------------------

                1 C          2 O          3 H     

   1 C       0.0000000    1.1358016 *  1.1102391 *
   2 O       1.1358016 *  0.0000000    2.1206194 *
   3 H       1.1102391 *  2.1206194 *  0.0000000  

  * ... LESS THAN  3.000

 ...... END OF ONE-ELECTRON INTEGRALS ......
 STEP CPU TIME =     0.00 TOTAL CPU TIME =          0.0 (      0.0 MIN)
 TOTAL WALL CLOCK TIME=          0.0 SECONDS, CPU UTILIZATION IS    98.77%
 TOTAL NUMBER OF NONZERO TWO-ELECTRON INTEGRALS =               69685
          5 INTEGRAL RECORDS WERE STORED ON DISK FILE  8.
  ...... END OF TWO-ELECTRON INTEGRALS .....
 STEP CPU TIME =     0.00 TOTAL CPU TIME =          0.0 (      0.0 MIN)
 TOTAL WALL CLOCK TIME=          0.0 SECONDS, CPU UTILIZATION IS    98.76%

          ---------------------------
                  UHF SCF CALCULATION
          ---------------------------
     DENSITY MATRIX CONV=  2.00E-04

 ITER EX      TOTAL ENERGY        E CHANGE  DENSITY CHANGE    ORB. GRAD 
          ---------------START SECOND ORDER SCF---------------
   1  0     -113.2225685189  -113.2225685189   0.067111579   0.045998869
   2  1     -113.2379701111    -0.0154015922   0.028236241   0.009510227
   3  2     -113.2394025887    -0.0014324776   0.010425609   0.004121351
   4  3     -113.2395014716    -0.0000988829   0.003765174   0.002511448
   5  4     -113.2395401196    -0.0000386480   0.001770631   0.000572253
   6  5     -113.2395450223    -0.0000049027   0.001041388   0.000295773
   7  6     -113.2395463634    -0.0000013412   0.000751491   0.000212677
   8  7     -113.2395469071    -0.0000005437   0.000591121   0.000116737
   9  8     -113.2395471477    -0.0000002406   0.000522077   0.000076604
  10  9     -113.2395472904    -0.0000001427   0.000323498   0.000070554
  11 10     -113.2395473593    -0.0000000689   0.000223280   0.000049580
  12 11     -113.2395473918    -0.0000000325   0.000133400   0.000020209
  13 12     -113.2395474013    -0.0000000095   0.000053099   0.000009503

          -----------------
          DENSITY CONVERGED
          -----------------
     TIME TO FORM FOCK OPERATORS=       0.0 SECONDS (       0.0 SEC/ITER)
     TIME TO SOLVE SCF EQUATIONS=       0.0 SECONDS (       0.0 SEC/ITER)

 FINAL UHF ENERGY IS     -113.2395474013 AFTER  13 ITERATIONS

          --------------------
          SPIN SZ   =    0.500
          S-SQUARED =    0.760
          --------------------
 ...... END OF UHF CALCULATION ......
 STEP CPU TIME =     0.01 TOTAL CPU TIME =          0.1 (      0.0 MIN)
 TOTAL WALL CLOCK TIME=          0.1 SECONDS, CPU UTILIZATION IS    98.91%
 ..... END OF 1-ELECTRON GRADIENT ......
 STEP CPU TIME =     0.00 TOTAL CPU TIME =          0.1 (      0.0 MIN)
 TOTAL WALL CLOCK TIME=          0.1 SECONDS, CPU UTILIZATION IS    98.92%
 ...... END OF 2-ELECTRON GRADIENT ......
 STEP CPU TIME =     0.01 TOTAL CPU TIME =          0.1 (      0.0 MIN)
 TOTAL WALL CLOCK TIME=          0.1 SECONDS, CPU UTILIZATION IS    99.13%

          NSERCH=  1     ENERGY=    -113.2395474

                                 -----------------------
                                 GRADIENT (HARTREE/BOHR)
                                 -----------------------
        ATOM     ZNUC       DE/DX         DE/DY         DE/DZ
 --------------------------------------------------------------
    1  C            6.0    -0.0281340    -0.0794213     0.0000000
    2  O            8.0     0.0155281     0.0579081     0.0000000
    3  H            1.0     0.0126059     0.0215132     0.0000000

          MAXIMUM GRADIENT = 0.0794213    RMS GRADIENT = 0.0354581

 NSERCH:   1  E=     -113.2395474013  GRAD. MAX=  0.0794213  R.M.S.=  0.0354581

          HESSIAN UPDATED USING THE BFGS FORMULA
             ACTUAL ENERGY CHANGE WAS   0.0054848647
          PREDICTED ENERGY CHANGE WAS  -0.0062410339 RATIO= -0.879
          MIN SEARCH, CORRECT HESSIAN, TRYING PURE NR STEP
               NR STEP HAS LENGTH         =   0.338049
          TRIM/QA LAMBDA FOR NON-TS MODES =  -0.11878932
          TRIM/QA STEP HAS LENGTH         =   0.150000
          RADIUS OF STEP TAKEN=   0.15000  CURRENT TRUST RADIUS=   0.15000

 BEGINNING GEOMETRY SEARCH POINT NSERCH=   2 ...

 COORDINATES OF ALL ATOMS ARE (ANGS)
   ATOM   CHARGE       X              Y              Z
 ------------------------------------------------------------
 C           6.0   0.0121785201   0.5601307622   0.0000000000
 O           8.0   0.0947176839  -0.5952007702   0.0000000000
 H           1.0  -0.8551022040   1.2461400080   0.0000000000

          INTERNUCLEAR DISTANCES (ANGS.)
          ------------------------------

                1 C          2 O          3 H     

   1 C       0.0000000    1.1582762 *  1.1057959 *
   2 O       1.1582762 *  0.0000000    2.0718817 *
   3 H       1.1057959 *  2.0718817 *  0.0000000  

  * ... LESS THAN  3.000

 ...... END OF ONE-ELECTRON INTEGRALS ......
 STEP CPU TIME =     0.00 TOTAL CPU TIME =          0.1 (      0.0 MIN)
 TOTAL WALL CLOCK TIME=          0.1 SECONDS, CPU UTILIZATION IS    99.13%
 TOTAL NUMBER OF NONZERO TWO-ELECTRON INTEGRALS =               69684
          5 INTEGRAL RECORDS WERE STORED ON DISK FILE  8.
  ...... END OF TWO-ELECTRON INTEGRALS .....
 STEP CPU TIME =     0.00 TOTAL CPU TIME =          0.1 (      0.0 MIN)
 TOTAL WALL CLOCK TIME=          0.1 SECONDS, CPU UTILIZATION IS    99.12%

          ---------------------------
                  UHF SCF CALCULATION
          ---------------------------
     DENSITY MATRIX CONV=  2.00E-04

 ITER EX      TOTAL ENERGY        E CHANGE  DENSITY CHANGE    ORB. GRAD 
          ---------------START SECOND ORDER SCF---------------
   1  0     -113.2423111521  -113.2423111521   0.031775480   0.017413741
   2  1     -113.2460635567    -0.0037524046   0.013610773   0.005308877
   3  2     -113.2464388421    -0.0003752853   0.004707055   0.002480564
   4  3     -113.2464800052    -0.0000411632   0.001735098   0.001139469
   5  4     -113.2464898831    -0.0000098779   0.001159766   0.000444432
   6  5     -113.2464927974    -0.0000029143   0.000600159   0.000245612
   7  6     -113.2464934414    -0.0000006440   0.000382192   0.000116436
   8  7     -113.2464936649    -0.0000002235   0.000304935   0.000078526
   9  8     -113.2464937586    -0.0000000937   0.000234720   0.000051428
  10  9     -113.2464938024    -0.0000000439   0.000184360   0.000040787
  11 10     -113.2464938268    -0.0000000244   0.000169305   0.000032281

          -----------------
          DENSITY CONVERGED
          -----------------
     TIME TO FORM FOCK OPERATORS=       0.0 SECONDS (       0.0 SEC/ITER)
     TIME TO SOLVE SCF EQUATIONS=       0.0 SECONDS (       0.0 SEC/ITER)

 FINAL UHF ENERGY IS     -113.2464938268 AFTER  11 ITERATIONS

          --------------------
          SPIN SZ   =    0.500
          S-SQUARED =    0.762
          --------------------
 ...... END OF UHF CALCULATION ......
 STEP CPU TIME =     0.01 TOTAL CPU TIME =          0.1 (      0.0 MIN)
 TOTAL WALL CLOCK TIME=          0.1 SECONDS, CPU UTILIZATION IS    99.15%
 ..... END OF 1-ELECTRON GRADIENT ......
 STEP CPU TIME =     0.00 TOTAL CPU TIME =          0.1 (      0.0 MIN)
 TOTAL WALL CLOCK TIME=          0.1 SECONDS, CPU UTILIZATION IS    99.16%
 ...... END OF 2-ELECTRON GRADIENT ......
 STEP CPU TIME =     0.01 TOTAL CPU TIME =          0.1 (      0.0 MIN)
 TOTAL WALL CLOCK TIME=          0.1 SECONDS, CPU UTILIZATION IS    99.28%

          NSERCH=  2     ENERGY=    -113.2464938

                                 -----------------------
                                 GRADIENT (HARTREE/BOHR)
                                 -----------------------
        ATOM     ZNUC       DE/DX         DE/DY         DE/DZ
 --------------------------------------------------------------
    1  C            6.0    -0.0147358    -0.0097390     0.0000000
    2  O            8.0     0.0098146     0.0004847     0.0000000
    3  H            1.0     0.0049212     0.0092543     0.0000000

          MAXIMUM GRADIENT = 0.0147358    RMS GRADIENT = 0.0075896

 NSERCH:   2  E=     -113.2464938268  GRAD. MAX=  0.0147358  R.M.S.=  0.0075896

          HESSIAN UPDATED USING THE BFGS FORMULA
             ACTUAL ENERGY CHANGE WAS  -0.0069464255
          PREDICTED ENERGY CHANGE WAS  -0.0064546230 RATIO=  1.076
          MIN SEARCH, CORRECT HESSIAN, TRYING PURE NR STEP
               NR STEP HAS LENGTH         =   0.266718
          RADIUS OF STEP TAKEN=   0.26672  CURRENT TRUST RADIUS=   0.30000

 BEGINNING GEOMETRY SEARCH POINT NSERCH=   3 ...

 COORDINATES OF ALL ATOMS ARE (ANGS)
   ATOM   CHARGE       X              Y              Z
 ------------------------------------------------------------
 C           6.0   0.0890967461   0.5902913275   0.0000000000
 O           8.0   0.0270582570  -0.5471287396   0.0000000000
 H           1.0  -0.8643610031   1.1679074120   0.0000000000

          INTERNUCLEAR DISTANCES (ANGS.)
          ------------------------------

                1 C          2 O          3 H     

   1 C       0.0000000    1.1391107 *  1.1147744 *
   2 O       1.1391107 *  0.0000000    1.9328676 *
   3 H       1.1147744 *  1.9328676 *  0.0000000  

  * ... LESS THAN  3.000

 ...... END OF ONE-ELECTRON INTEGRALS ......
 STEP CPU TIME =     0.00 TOTAL CPU TIME =          0.1 (      0.0 MIN)
 TOTAL WALL CLOCK TIME=          0.1 SECONDS, CPU UTILIZATION IS    99.28%
 TOTAL NUMBER OF NONZERO TWO-ELECTRON INTEGRALS =               69687
          5 INTEGRAL RECORDS WERE STORED ON DISK FILE  8.
  ...... END OF TWO-ELECTRON INTEGRALS .....
 STEP CPU TIME =     0.00 TOTAL CPU TIME =          0.1 (      0.0 MIN)
 TOTAL WALL CLOCK TIME=          0.1 SECONDS, CPU UTILIZATION IS    99.26%

          ---------------------------
                  UHF SCF CALCULATION
          ---------------------------
     DENSITY MATRIX CONV=  5.00E-05

 ITER EX      TOTAL ENERGY        E CHANGE  DENSITY CHANGE    ORB. GRAD 
          ---------------START SECOND ORDER SCF---------------
   1  0     -113.2336512235  -113.2336512235   0.056532583   0.028281125
   2  1     -113.2431448391    -0.0094936156   0.020853090   0.009178965
   3  2     -113.2442369740    -0.0010921349   0.007159094   0.004167495
   4  3     -113.2443860260    -0.0001490520   0.009911724   0.002188510
   5  4     -113.2444760714    -0.0000900454   0.003489137   0.001377963
   6  5     -113.2444944109    -0.0000183395   0.003327929   0.001431528
   7  6     -113.2445068156    -0.0000124046   0.003662699   0.000807397
   8  7     -113.2445151896    -0.0000083740   0.002130358   0.000501697
   9  8     -113.2445184567    -0.0000032671   0.001666901   0.000448521
  10  9     -113.2445200095    -0.0000015528   0.000883482   0.000265579
  11 10     -113.2445205791    -0.0000005696   0.000445932   0.000116710
  12 11     -113.2445207949    -0.0000002158   0.000160468   0.000064616
  13 12     -113.2445208496    -0.0000000548   0.000074383   0.000033626
  14 13     -113.2445208613    -0.0000000117   0.000033455   0.000015484
  15 14     -113.2445208636    -0.0000000024   0.000018848   0.000004396

          -----------------
          DENSITY CONVERGED
          -----------------
     TIME TO FORM FOCK OPERATORS=       0.0 SECONDS (       0.0 SEC/ITER)
     TIME TO SOLVE SCF EQUATIONS=       0.0 SECONDS (       0.0 SEC/ITER)

 FINAL UHF ENERGY IS     -113.2445208636 AFTER  15 ITERATIONS

          --------------------
          SPIN SZ   =    0.500
          S-SQUARED =    0.761
          --------------------
 ...... END OF UHF CALCULATION ......
 STEP CPU TIME =     0.01 TOTAL CPU TIME =          0.1 (      0.0 MIN)
 TOTAL WALL CLOCK TIME=          0.1 SECONDS, CPU UTILIZATION IS    99.21%
 ..... END OF 1-ELECTRON GRADIENT ......
 STEP CPU TIME =     0.00 TOTAL CPU TIME =          0.1 (      0.0 MIN)
 TOTAL WALL CLOCK TIME=          0.1 SECONDS, CPU UTILIZATION IS    99.21%
 ...... END OF 2-ELECTRON GRADIENT ......
 STEP CPU TIME =     0.01 TOTAL CPU TIME =          0.1 (      0.0 MIN)
 TOTAL WALL CLOCK TIME=          0.1 SECONDS, CPU UTILIZATION IS    99.20%

          NSERCH=  3     ENERGY=    -113.2445209

                                 -----------------------
                                 GRADIENT (HARTREE/BOHR)
                                 -----------------------
        ATOM     ZNUC       DE/DX         DE/DY         DE/DZ
 --------------------------------------------------------------
    1  C            6.0     0.0184291    -0.0391683     0.0000000
    2  O            8.0    -0.0117057     0.0524746     0.0000000
    3  H            1.0    -0.0067234    -0.0133063     0.0000000

          MAXIMUM GRADIENT = 0.0524746    RMS GRADIENT = 0.0235387

 NSERCH:   3  E=     -113.2445208636  GRAD. MAX=  0.0524746  R.M.S.=  0.0235387

          HESSIAN UPDATED USING THE BFGS FORMULA
             ACTUAL ENERGY CHANGE WAS   0.0019729632
          PREDICTED ENERGY CHANGE WAS  -0.0026810405 RATIO= -0.736
          MIN SEARCH, CORRECT HESSIAN, TRYING PURE NR STEP
               NR STEP HAS LENGTH         =   0.149784
          TRIM/QA LAMBDA FOR NON-TS MODES =  -0.02279896
          TRIM/QA STEP HAS LENGTH         =   0.133359
          RADIUS OF STEP TAKEN=   0.13336  CURRENT TRUST RADIUS=   0.13336

 BEGINNING GEOMETRY SEARCH POINT NSERCH=   4 ...

 COORDINATES OF ALL ATOMS ARE (ANGS)
   ATOM   CHARGE       X              Y              Z
 ------------------------------------------------------------
 C           6.0   0.0536216862   0.5825011385   0.0000000000
 O           8.0   0.0598625398  -0.5789229255   0.0000000000
 H           1.0  -0.8616902260   1.2074917870   0.0000000000

          INTERNUCLEAR DISTANCES (ANGS.)
          ------------------------------

                1 C          2 O          3 H     

   1 C       0.0000000    1.1614408 *  1.1083362 *
   2 O       1.1614408 *  0.0000000    2.0101087 *
   3 H       1.1083362 *  2.0101087 *  0.0000000  

  * ... LESS THAN  3.000

 ...... END OF ONE-ELECTRON INTEGRALS ......
 STEP CPU TIME =     0.00 TOTAL CPU TIME =          0.1 (      0.0 MIN)
 TOTAL WALL CLOCK TIME=          0.1 SECONDS, CPU UTILIZATION IS    99.20%
 TOTAL NUMBER OF NONZERO TWO-ELECTRON INTEGRALS =               69680
          5 INTEGRAL RECORDS WERE STORED ON DISK FILE  8.
  ...... END OF TWO-ELECTRON INTEGRALS .....
 STEP CPU TIME =     0.00 TOTAL CPU TIME =          0.1 (      0.0 MIN)
 TOTAL WALL CLOCK TIME=          0.1 SECONDS, CPU UTILIZATION IS    99.17%

          ---------------------------
                  UHF SCF CALCULATION
          ---------------------------
     DENSITY MATRIX CONV=  2.00E-04

 ITER EX      TOTAL ENERGY        E CHANGE  DENSITY CHANGE    ORB. GRAD 
          ---------------START SECOND ORDER SCF---------------
   1  0     -113.2446461052  -113.2446461052   0.026282033   0.012606887
   2  1     -113.2471220148    -0.0024759096   0.012266720   0.004784856
   3  2     -113.2474682084    -0.0003461937   0.004937395   0.002302938
   4  3     -113.2475161491    -0.0000479407   0.003995201   0.001839877
   5  4     -113.2475418199    -0.0000256708   0.003156273   0.000793463
   6  5     -113.2475513071    -0.0000094872   0.001876173   0.000630873
   7  6     -113.2475547552    -0.0000034481   0.003409619   0.000580562
   8  7     -113.2475591615    -0.0000044063   0.001658543   0.000349595
   9  8     -113.2475607574    -0.0000015959   0.001237801   0.000256715
  10  9     -113.2475615712    -0.0000008137   0.000632571   0.000199326
  11 10     -113.2475618860    -0.0000003149   0.000389037   0.000111877
  12 11     -113.2475620325    -0.0000001464   0.000126471   0.000065656
  13 12     -113.2475620689    -0.0000000365   0.000062710   0.000017664

          -----------------
          DENSITY CONVERGED
          -----------------
     TIME TO FORM FOCK OPERATORS=       0.0 SECONDS (       0.0 SEC/ITER)
     TIME TO SOLVE SCF EQUATIONS=       0.0 SECONDS (       0.0 SEC/ITER)

 FINAL UHF ENERGY IS     -113.2475620689 AFTER  13 ITERATIONS

          --------------------
          SPIN SZ   =    0.500
          S-SQUARED =    0.762
          --------------------
 ...... END OF UHF CALCULATION ......
 STEP CPU TIME =     0.01 TOTAL CPU TIME =          0.1 (      0.0 MIN)
 TOTAL WALL CLOCK TIME=          0.1 SECONDS, CPU UTILIZATION IS    99.17%
 ..... END OF 1-ELECTRON GRADIENT ......
 STEP CPU TIME =     0.00 TOTAL CPU TIME =          0.1 (      0.0 MIN)
 TOTAL WALL CLOCK TIME=          0.1 SECONDS, CPU UTILIZATION IS    99.17%
 ...... END OF 2-ELECTRON GRADIENT ......
 STEP CPU TIME =     0.01 TOTAL CPU TIME =          0.1 (      0.0 MIN)
 TOTAL WALL CLOCK TIME=          0.1 SECONDS, CPU UTILIZATION IS    99.24%

          NSERCH=  4     ENERGY=    -113.2475621

                                 -----------------------
                                 GRADIENT (HARTREE/BOHR)
                                 -----------------------
        ATOM     ZNUC       DE/DX         DE/DY         DE/DZ
 --------------------------------------------------------------
[...]
   27  O  2 ZZ   -0.085447  -0.013320   0.000000  -0.021762   0.158905
   28  O  2 XY   -0.003808  -0.072149   0.000000  -0.008097  -0.002884
   29  O  2 XZ    0.000000   0.000000  -0.001273   0.000000   0.000000
   30  O  2 YZ    0.000000   0.000000   0.095248   0.000000   0.000000
   31  H  3  S    0.043452  -0.000602   0.000000  -0.734025  -0.081511
   32  H  3  S   -0.405459   0.178101   0.000000  -0.758680   0.014952

                     16         17         18
                    1.0546     1.0959     1.2453
                     A          A          A   
    1  C  1  S    0.075278  -0.041900   0.000000
    2  C  1  S   -0.680983  -0.635913   0.000000
    3  C  1  X    0.401968   0.323553   0.000000
    4  C  1  Y   -0.196958  -0.451509   0.000000
    5  C  1  Z    0.000000   0.000000   0.107254
    6  C  1  S    1.724260   1.320913   0.000000
    7  C  1  X   -0.590104  -0.509524   0.000000
    8  C  1  Y    0.226956   0.382505   0.000000
    9  C  1  Z    0.000000   0.000000  -0.515501
   10  C  1 XX   -0.066566   0.114117   0.000000
   11  C  1 YY    0.189819  -0.319558   0.000000
   12  C  1 ZZ   -0.174727   0.002553   0.000000
   13  C  1 XY   -0.117320  -0.079862   0.000000
   14  C  1 XZ    0.000000   0.000000  -0.000233
   15  C  1 YZ    0.000000   0.000000   0.091170
   16  O  2  S   -0.020653   0.037384   0.000000
   17  O  2  S   -0.221943   0.410533   0.000000
   18  O  2  X    0.003343  -0.008601   0.000000
   19  O  2  Y    0.537840  -0.554200   0.000000
   20  O  2  Z    0.000000   0.000000  -0.962257
   21  O  2  S    0.149846  -0.948468   0.000000
   22  O  2  X   -0.050233  -0.008110   0.000000
   23  O  2  Y   -0.732483   0.529597   0.000000
   24  O  2  Z    0.000000   0.000000   1.266018
   25  O  2 XX   -0.079464   0.141205   0.000000
   26  O  2 YY   -0.260931   0.344065   0.000000
   27  O  2 ZZ   -0.072300   0.149440   0.000000
   28  O  2 XY    0.077991   0.059241   0.000000
   29  O  2 XZ    0.000000   0.000000  -0.002440
   30  O  2 YZ    0.000000   0.000000  -0.039185
   31  H  3  S    0.702461   0.586175   0.000000
   32  H  3  S   -1.427646  -1.207345   0.000000

          **** BETA SET ****

                      1          2          3          4          5
                  -20.6156   -11.3306    -1.4416    -0.7952    -0.6675
                     A          A          A          A          A   
    1  C  1  S   -0.000007  -0.995886   0.112813  -0.149459  -0.005191
    2  C  1  S    0.000221  -0.025300  -0.208649   0.314495   0.027171
    3  C  1  X    0.000037   0.001062   0.007430  -0.183557   0.194207
    4  C  1  Y    0.000398   0.001876   0.200525   0.082382  -0.346087
    5  C  1  Z    0.000000   0.000000   0.000000   0.000000   0.000000
    6  C  1  S   -0.000555   0.005184  -0.063301   0.276348  -0.101069
    7  C  1  X   -0.000069  -0.001585   0.007843  -0.073747   0.070184
    8  C  1  Y    0.000518   0.001362  -0.013270   0.067026  -0.060006
    9  C  1  Z    0.000000   0.000000   0.000000   0.000000   0.000000
   10  C  1 XX    0.000037   0.002452   0.019777   0.009728  -0.028830
   11  C  1 YY   -0.000913   0.000504  -0.036873   0.006182   0.018283
   12  C  1 ZZ    0.000029   0.002450   0.018903  -0.010761  -0.006130
   13  C  1 XY    0.000005   0.000710   0.002493  -0.020551   0.012307
   14  C  1 XZ    0.000000   0.000000   0.000000   0.000000   0.000000
   15  C  1 YZ    0.000000   0.000000   0.000000   0.000000   0.000000
   16  O  2  S    0.994790   0.000562   0.198371   0.091707   0.058040
   17  O  2  S    0.020710  -0.000300  -0.438432  -0.213548  -0.134414
   18  O  2  X   -0.000054   0.000076   0.016817  -0.091322   0.096268
   19  O  2  Y    0.001726  -0.000292  -0.153086   0.267650   0.459830
   20  O  2  Z    0.000000   0.000000   0.000000   0.000000   0.000000
   21  O  2  S    0.004603   0.001712  -0.365771  -0.303782  -0.263525
   22  O  2  X    0.000002   0.000474   0.004203  -0.041268   0.059428
   23  O  2  Y    0.000222   0.001684  -0.045759   0.137964   0.253339
   24  O  2  Z    0.000000   0.000000   0.000000   0.000000   0.000000
   25  O  2 XX   -0.004082  -0.000008   0.005757  -0.001321  -0.005881
   26  O  2 YY   -0.003159   0.000148  -0.021577   0.012175   0.028027
   27  O  2 ZZ   -0.003985  -0.000062  -0.001885  -0.006593  -0.008777
   28  O  2 XY   -0.000109   0.000170   0.003170  -0.009754   0.013619
   29  O  2 XZ    0.000000   0.000000   0.000000   0.000000   0.000000
   30  O  2 YZ    0.000000   0.000000   0.000000   0.000000   0.000000
   31  H  3  S   -0.000004   0.000389  -0.022171   0.208466  -0.174004
   32  H  3  S   -0.000129  -0.002535   0.010219   0.083595  -0.122978

                      6          7          8          9         10
                   -0.5782    -0.5271     0.1211     0.1683     0.3080
                     A          A          A          A          A   
    1  C  1  S    0.000000  -0.057678   0.093716   0.000000  -0.075102
    2  C  1  S    0.000000   0.107169  -0.080681   0.000000   0.127757
    3  C  1  X    0.000000   0.188387  -0.256444   0.000000  -0.327001
    4  C  1  Y    0.000000   0.159096  -0.184482   0.000000   0.113646
    5  C  1  Z   -0.282477   0.000000   0.000000   0.410557   0.000000
    6  C  1  S    0.000000   0.171454  -0.823436   0.000000   1.561918
    7  C  1  X    0.000000   0.116502  -0.257876   0.000000  -1.096423
    8  C  1  Y    0.000000   0.066440  -0.374327   0.000000   0.127479
    9  C  1  Z   -0.143013   0.000000   0.000000   0.772602   0.000000
   10  C  1 XX    0.000000   0.000357   0.027662   0.000000   0.018565
   11  C  1 YY    0.000000  -0.005110   0.016307   0.000000  -0.004639
   12  C  1 ZZ    0.000000   0.006528  -0.007206   0.000000  -0.001482
   13  C  1 XY    0.000000  -0.055946  -0.010337   0.000000  -0.010307
   14  C  1 XZ    0.007738   0.000000   0.000000  -0.021389   0.000000
   15  C  1 YZ    0.042819   0.000000   0.000000   0.018927   0.000000
   16  O  2  S    0.000000   0.004318  -0.009776   0.000000   0.019595
   17  O  2  S    0.000000  -0.021923   0.055885   0.000000   0.000577
   18  O  2  X    0.000000   0.518162   0.288978   0.000000   0.165708
   19  O  2  Y    0.000000  -0.085126   0.087309   0.000000  -0.053400
   20  O  2  Z   -0.539923   0.000000   0.000000  -0.348076   0.000000
   21  O  2  S    0.000000   0.017899  -0.074806   0.000000  -0.380788
   22  O  2  X    0.000000   0.380958   0.343430   0.000000   0.399320
   23  O  2  Y    0.000000  -0.041314   0.064808   0.000000  -0.183753
   24  O  2  Z   -0.376065   0.000000   0.000000  -0.509024   0.000000
   25  O  2 XX    0.000000  -0.003510   0.009033   0.000000   0.011802
   26  O  2 YY    0.000000  -0.004401   0.012205   0.000000   0.006354
   27  O  2 ZZ    0.000000  -0.000069   0.008585   0.000000   0.021589
   28  O  2 XY    0.000000   0.038087   0.000283   0.000000  -0.002289
   29  O  2 XZ    0.002006   0.000000   0.000000   0.001636   0.000000
   30  O  2 YZ   -0.042378   0.000000   0.000000   0.002934   0.000000
   31  H  3  S    0.000000   0.068151   0.166134   0.000000   0.047381
   32  H  3  S    0.000000   0.082932   0.698068   0.000000  -2.062445

                     11         12         13         14         15
                    0.4018     0.7464     0.7889     0.8669     1.0175
                     A          A          A          A          A   
    1  C  1  S    0.027320   0.000000  -0.035730  -0.037133  -0.012162
    2  C  1  S    0.096308   0.000000   0.356354  -0.858636   1.025929
    3  C  1  X   -0.070088   0.000000   0.973042   0.085665   0.004983
    4  C  1  Y    0.091092   0.000000   0.233303  -0.495248  -0.802884
    5  C  1  Z    0.000000  -1.068477   0.000000   0.000000   0.000000
    6  C  1  S   -1.788777   0.000000  -0.181692   1.969968  -0.503818
    7  C  1  X   -0.298906   0.000000  -1.273711  -1.114582   0.124936
    8  C  1  Y    2.130094   0.000000   0.063815   1.024351   0.274795
    9  C  1  Z    0.000000   1.075779   0.000000   0.000000   0.000000
   10  C  1 XX    0.011685   0.000000   0.017152  -0.147807   0.087902
   11  C  1 YY   -0.008249   0.000000   0.043310  -0.127575   0.029122
   12  C  1 ZZ    0.006495   0.000000   0.065092  -0.003728   0.067319
   13  C  1 XY   -0.011055   0.000000  -0.018772   0.066114  -0.000144
   14  C  1 XZ    0.000000   0.010639   0.000000   0.000000   0.000000
   15  C  1 YZ    0.000000   0.018845   0.000000   0.000000   0.000000
   16  O  2  S   -0.108607   0.000000  -0.001923   0.008776   0.047470
   17  O  2  S    0.048396   0.000000   0.038462  -0.165404  -0.408045
   18  O  2  X    0.017157   0.000000   0.073700   0.248902  -0.044677
   19  O  2  Y    0.094304   0.000000  -0.049964   0.005345   0.053984
   20  O  2  Z    0.000000  -0.017433   0.000000   0.000000   0.000000
   21  O  2  S    2.445086   0.000000   0.075424   0.271157   0.249385
   22  O  2  X    0.076634   0.000000   0.082994   0.182985   0.015304
   23  O  2  Y    0.917212   0.000000   0.071898  -0.150802  -1.067542
   24  O  2  Z    0.000000  -0.046610   0.000000   0.000000   0.000000
   25  O  2 XX   -0.082094   0.000000   0.001509  -0.064141  -0.166310
   26  O  2 YY    0.014917   0.000000   0.025406  -0.018188   0.023583
   27  O  2 ZZ   -0.077410   0.000000   0.015293  -0.028707  -0.183247
   28  O  2 XY   -0.005723   0.000000   0.088901  -0.021900   0.001193
   29  O  2 XZ    0.000000   0.002630   0.000000   0.000000   0.000000
   30  O  2 YZ    0.000000  -0.099398   0.000000   0.000000   0.000000
   31  H  3  S    0.070899   0.000000  -0.118566  -0.648883   0.069359
   32  H  3  S   -0.618387   0.000000  -0.404800  -0.926748   0.144489

                     16         17         18
                    1.0758     1.1392     1.2411
                     A          A          A   
    1  C  1  S    0.086962  -0.020183   0.000000
    2  C  1  S   -0.623539  -0.598443   0.000000
    3  C  1  X    0.291911   0.327841   0.000000
    4  C  1  Y   -0.036204  -0.577756   0.000000
    5  C  1  Z    0.000000   0.000000   0.114682
    6  C  1  S    1.415227   1.489823   0.000000
    7  C  1  X   -0.476794  -0.418324   0.000000
    8  C  1  Y    0.131352   0.302257   0.000000
    9  C  1  Z    0.000000   0.000000  -0.523909
   10  C  1 XX   -0.091240   0.113455   0.000000
   11  C  1 YY    0.251154  -0.253012   0.000000
   12  C  1 ZZ   -0.182399  -0.039644   0.000000
   13  C  1 XY   -0.096715  -0.098450   0.000000
   14  C  1 XZ    0.000000   0.000000  -0.002675
   15  C  1 YZ    0.000000   0.000000   0.088902
   16  O  2  S   -0.033911   0.041128   0.000000
   17  O  2  S   -0.271364   0.338459   0.000000
   18  O  2  X   -0.024484  -0.003092   0.000000
   19  O  2  Y    0.644909  -0.430083   0.000000
   20  O  2  Z    0.000000   0.000000  -0.959170
   21  O  2  S    0.358255  -1.017560   0.000000
   22  O  2  X    0.009260  -0.084339   0.000000
   23  O  2  Y   -0.732194   0.208056   0.000000
   24  O  2  Z    0.000000   0.000000   1.269347
   25  O  2 XX   -0.096111   0.116622   0.000000
   26  O  2 YY   -0.336681   0.297943   0.000000
   27  O  2 ZZ   -0.087865   0.114545   0.000000
   28  O  2 XY    0.057755   0.073024   0.000000
   29  O  2 XZ    0.000000   0.000000   0.001320
   30  O  2 YZ    0.000000   0.000000  -0.036897
   31  H  3  S    0.574521   0.798546   0.000000
   32  H  3  S   -1.144720  -1.308968   0.000000

     ----------------------------------------------------------------
     PROPERTY VALUES FOR THE UHF   SELF-CONSISTENT FIELD WAVEFUNCTION
     ----------------------------------------------------------------

          -----------------
          ENERGY COMPONENTS
          -----------------

         WAVEFUNCTION NORMALIZATION =       1.0000000000

                ONE ELECTRON ENERGY =    -207.6896295342
                TWO ELECTRON ENERGY =      67.5577330258
           NUCLEAR REPULSION ENERGY =      26.8842364949
                                      ------------------
                       TOTAL ENERGY =    -113.2476600134

 ELECTRON-ELECTRON POTENTIAL ENERGY =      67.5577330258
  NUCLEUS-ELECTRON POTENTIAL ENERGY =    -320.6941161987
   NUCLEUS-NUCLEUS POTENTIAL ENERGY =      26.8842364949
                                      ------------------
             TOTAL POTENTIAL ENERGY =    -226.2521466780
               TOTAL KINETIC ENERGY =     113.0044866646
                 VIRIAL RATIO (V/T) =       2.0021518911

  ...... PI ENERGY ANALYSIS ......

 ENERGY ANALYSIS:
            FOCK ENERGY=    -72.5741618814
          BARE H ENERGY=   -207.6896295342
     ELECTRONIC ENERGY =   -140.1318957078
         KINETIC ENERGY=    113.0044866646
          N-N REPULSION=     26.8842364949
           TOTAL ENERGY=   -113.2476592128
        SIGMA PART(1+2)=   -130.9629829058
               (K,V1,2)=    109.2776783133   -299.7844929659     59.5438317468
           PI PART(1+2)=     -9.1689128019
               (K,V1,2)=      3.7268083513    -20.9096232329      8.0139020796
  SIGMA SKELETON, ERROR=   -104.0787464109     -0.0000000000
             MIXED PART= 0.00000E+00 0.00000E+00 0.00000E+00 0.00000E+00
 ...... END OF PI ENERGY ANALYSIS ......

          ---------------------------------------
          MULLIKEN AND LOWDIN POPULATION ANALYSES
          ---------------------------------------

     ATOMIC MULLIKEN POPULATION IN EACH MOLECULAR ORBITAL
        ALPHA ORBITALS

                      1          2          3          4          5

                  1.000000   1.000000   1.000000   1.000000   1.000000

    1            -0.000195   1.000272   0.256691   0.527793   0.257388
    2             1.000198  -0.000509   0.743825   0.261115   0.639642
    3            -0.000003   0.000237  -0.000516   0.211092   0.102970

                      6          7          8

                  1.000000   1.000000   1.000000

    1             0.375388   0.316809   0.519306
    2             0.602084   0.683191   0.320350
    3             0.022528   0.000000   0.160344

     ATOMIC MULLIKEN POPULATION IN EACH MOLECULAR ORBITAL
         BETA ORBITALS

                      1          2          3          4          5

                  1.000000   1.000000   1.000000   1.000000   1.000000

    1            -0.000178   1.000195   0.256214   0.470383   0.305274
    2             1.000180  -0.000426   0.744507   0.354630   0.562660
    3            -0.000002   0.000232  -0.000721   0.174986   0.132067

                      6          7

                  1.000000   1.000000

    1             0.254884   0.280750
    2             0.745116   0.696234
    3             0.000000   0.023016

     ATOMIC SPIN POPULATION (ALPHA MINUS BETA)
       ATOM         MULL.POP.                    LOW.POP.
    1 C             0.685927                     0.685552
    2 O             0.146996                     0.192984
    3 H             0.167077                     0.121464


          ********* ALL ELECTRONS ********

               ----- POPULATIONS IN EACH AO -----
                             MULLIKEN      LOWDIN
              1  C  1  S      1.99690     1.97514
              2  C  1  S      0.72600     0.39630
              3  C  1  X      0.64487     0.57749
              4  C  1  Y      0.75022     0.69087
              5  C  1  Z      0.34979     0.31782
              6  C  1  S      0.62597     0.41907
              7  C  1  X      0.33020     0.42794
              8  C  1  Y      0.10874     0.29013
              9  C  1  Z      0.20017     0.26191
             10  C  1 XX      0.00643     0.15920
             11  C  1 YY      0.04256     0.23317
             12  C  1 ZZ     -0.02187     0.12468
             13  C  1 XY      0.03923     0.07903
             14  C  1 XZ      0.00003     0.00004
             15  C  1 YZ      0.02171     0.03736
             16  O  2  S      1.99562     1.97772
             17  O  2  S      0.92784     0.71566
             18  O  2  X      1.03455     0.99044
             19  O  2  Y      0.97389     0.90801
             20  O  2  Z      0.81719     0.76680
             21  O  2  S      0.89618     0.46402
             22  O  2  X      0.64705     0.65463
             23  O  2  Y      0.41255     0.52105
             24  O  2  Z      0.59635     0.60074
             25  O  2 XX      0.00357     0.16677
             26  O  2 YY      0.01900     0.19682
             27  O  2 ZZ      0.00344     0.16663
             28  O  2 XY      0.01080     0.02143
             29  O  2 XZ      0.00002     0.00002
             30  O  2 YZ      0.01475     0.01532
             31  H  3  S      0.51314     0.46858
             32  H  3  S      0.31309     0.37522

          ----- MULLIKEN ATOMIC OVERLAP POPULATIONS -----
          (OFF-DIAGONAL ELEMENTS NEED TO BE MULTIPLIED BY 2)

             1           2           3

    1    5.0250220
    2    0.5316619   7.8676283
    3    0.2642875  -0.0464929   0.6084367

          TOTAL MULLIKEN AND LOWDIN ATOMIC POPULATIONS
       ATOM         MULL.POP.    CHARGE          LOW.POP.     CHARGE
    1 C             5.820971    0.179029         5.990142    0.009858
    2 O             8.352797   -0.352797         8.166061   -0.166061
    3 H             0.826231    0.173769         0.843797    0.156203

          -------------------------------
          BOND ORDER AND VALENCE ANALYSIS     BOND ORDER THRESHOLD=0.050
          -------------------------------

                   BOND                       BOND                       BOND
  ATOM PAIR DIST  ORDER      ATOM PAIR DIST  ORDER      ATOM PAIR DIST  ORDER
    1   2  1.159  2.099        1   3  1.106  0.881

                       TOTAL       BONDED        FREE
      ATOM            VALENCE     VALENCE     VALENCE
    1 C                 3.503       2.981       0.522
    2 O                 2.177       2.107       0.071
    3 H                 0.918       0.889       0.029

          -----------------------------------------
          ATOMIC SPIN DENSITY AT THE NUCLEUS (A.U.)
          -----------------------------------------
                            SPIN DENS    ALPHA DENS     BETA DENS
    1  C            6.0     0.3764886      59.46929      59.09280
    2  O            8.0     0.0867094     145.49644     145.40973
    3  H            1.0     0.0791398       0.24321       0.16407

          ---------------------
          ELECTROSTATIC MOMENTS
          ---------------------

 POINT   1           X           Y           Z (BOHR)    CHARGE
                 0.047984   -0.074448    0.000000       -0.00 (A.U.)
         DX          DY          DZ         /D/  (DEBYE)
    -0.878542    1.889180   -0.000000    2.083467
 ...... END OF PROPERTY EVALUATION ......
 STEP CPU TIME =     0.00 TOTAL CPU TIME =          0.2 (      0.0 MIN)
 TOTAL WALL CLOCK TIME=          0.2 SECONDS, CPU UTILIZATION IS    99.33%
  $VIB   
          IVIB=   0 IATOM=   0 ICOORD=   0 E=     -113.2476600134
 -7.018983689E-05 2.754824947E-05 0.000000000E+00 1.949347398E-05-1.664549661E-05
  0.000000000E+00 5.069636296E-05-1.090275530E-05 0.000000000E+00
 -8.785416383E-01 1.889179823E+00-5.934800442E-16
 ......END OF GEOMETRY SEARCH......
 STEP CPU TIME =     0.00 TOTAL CPU TIME =          0.2 (      0.0 MIN)
 TOTAL WALL CLOCK TIME=          0.2 SECONDS, CPU UTILIZATION IS    99.33%
               989108  WORDS OF DYNAMIC MEMORY USED
 EXECUTION OF GAMESS TERMINATED NORMALLY 19:56:04 20-OCT-2025    
----- accounting info -----
Files used on the parent node Macbooks-MacBook-Pro.local were:
-rw-r--r--  1 macbookpro  staff      289 Oct 20 19:56 /Users/macbookpro/local/gamess/scr/cho_q0m2_uhf_631g_star.F05
-rw-r--r--  1 macbookpro  staff   900080 Oct 20 19:56 /Users/macbookpro/local/gamess/scr/cho_q0m2_uhf_631g_star.F08
-rw-r--r--  1 macbookpro  staff  2061360 Oct 20 19:56 /Users/macbookpro/local/gamess/scr/cho_q0m2_uhf_631g_star.F10
-rw-r--r--  1 macbookpro  staff   124084 Oct 20 19:56 /Users/macbookpro/local/gamess/scr/cho_q0m2_uhf_631g_star.dat
Mon Oct 20 19:56:04 +07 2025
0.231u 0.060s 0:00.29 100.0%	0+0k 0+0io 46pf+0w
