1 : cl2_q0m1_uhf_631g_star.inp
----- GAMESS execution script 'rungms' -----
This job is running on host Macbooks-MacBook-Pro.local
under operating system Darwin at Mon Oct 20 19:56:15 +07 2025
Available scratch disk space (Kbyte units) at beginning of the job is
Filesystem   1024-blocks      Used Available Capacity iused      ifree %iused  Mounted on
/dev/disk3s5   482797652 122180084 339913128    27% 1896473 3399131280    0%   /System/Volumes/Data
GAMESS temporary binary files will be written to /Users/macbookpro/local/gamess/scr
GAMESS supplementary output files will be written to /Users/macbookpro/local/gamess/scr
Copying input file /Users/macbookpro/sq2_data/cl2_q0m1_uhf_631g_star.inp to your run's scratch directory...
          *******************************************************
          *                                                     *
          *          GAMESS VERSION = 30 JUN 2023 (R1)          *
          *                                                     *
          *              doi.org/10.1063/5.0005188              *
          *                                                     *
          **************** 64 BIT LINUX VERSION *****************

  GAMESS HAS BEEN MADE POSSIBLE WITH IMPORTANT CONTRIBUTIONS FROM
  THE FOLLOWING INDIVIDUALS (IN ALPHABETICAL ORDER):

     IVANA ADAMOVIC, CHRISTINE AIKENS, TOMOKO AKAMA,
     MELISA ALKAN, YURI ALEXEEV, YURIKO AOKI, POOJA ARORA,
     TOSHIO ASADA, ANDREY ASADCHEV, KIM K. BALDRIDGE,
     PRADIPTA BANDYOPADHYAY, TAYLOR A. BARNES, MARIA BARYSZ,
     ROB BELL, JONATHAN BENTZ, COLLEEN BERTONI,
     JERRY A. BOATZ, BRETT BODE, KURT BRORSEN, KURT R. BRORSEN,
     LAIMUTIS BYTAUTAS, CALEB CARLIN, LAURA CARRINGTON,
     GALINA CHABAN, BENOIT CHAMPAGNE, WEI CHEN, MAHITO CHIBA,
     DAN CHIPMAN, CHEOL HO CHOI, TANNER CULPITT,
     DIPAYAN DATTA, PAUL DAY, ALBERT DEFUSCO,
     NUWAN DESILVA, J. EMILIANO DEUSTUA,
     TIM DUDLEY, MICHEL DUPUIS, STEVEN T. ELBERT,
     DMITRI FEDOROV, KATHERINE FERRERAS, MICHAEL FILATOV,
     ALEX FINDLATER,GRAHAM FLETCHER, MARK FREITAG,
     CHRISTIAN FRIEDL, DAVID GARMER, 
     IGOR S. GERASIMOV, KURT GLAESEMANN,
     MARK S. GORDON, JEFFREY R. GOUR, FENG LONG GU,
     EMILIE B. GUIDEZ, ANASTASIA GUNINA, SHARON HAMMES-SCHIFFER,
     MASATAKE HARUTA, KIMIHIKO HIRAO, YASUHIRO IKABATA,
     TZVETELIN IORDANOV, STEPHAN IRLE, KAZUYA ISHIMURA,
     JOE IVANIC, FRANK JENSEN, JAN H. JENSEN, VISVALDAS KAIRYS,
     MUNEAKI KAMIYA, MICHIO KATOUDA, NAOAKI KAWAKAMI, DAN KEMP,
     BERNARD KIRTMAN, KAZUO KITAURA, MARIUSZ KLOBUKOWSKI,
     MASATO KOBAYASHI, KONSTANTIN KOMAROV, PRAKASHAN KORAMBATH,
     JACEK KORCHOWIEC, SHIRO KOSEKI, KAROL KOWALSKI,
     JIMMY KROMANN, STANISLAW A. KUCHARSKI, HENRY KURTZ,
     SAROM SOK LEANG, SEUNGHOON LEE, HUI LI, SHUHUA LI, WEI LI,
     JESSE J. LUTZ, ALEKSANDR O. LYKHIN,
     ILIAS MAGOULAS, MARCIN MAKOWSKI,
     JOANI MATO, NIKITA MATSUNAGA, BENEDETTA MENNUCCI,
     GRANT MERRILL, NORIYUKI MINEZAWA, VLADIMIR MIRONOV,
     EISAKU MIYOSHI, JOHN A. MONTGOMERY JR., HIROTOSHI MORI,
     JONATHAN MULLIN, MONIKA MUSIAL, SHIGERU NAGASE,
     TAKESHI NAGATA, HIROMI NAKAI, TAKAHITO NAKAJIMA,
     YUYA NAKAJIMA, HARUYUKI NAKANO, HIROYA NAKATA, SEAN NEDD,
     HEATHER NETZLOFF, KIET A. NGUYEN, YOSHIO NISHIMOTO,
     BOSILJKA NJEGIC, RYAN OLSON, MIKE PAK, ROBERTO PEVERATI,
     BUU PHAM, PIOTR PIECUCH, ANNA POMOGAEVA, DAVID POOLE,
     SPENCER PRUITT, OLIVIER QUINET, LUKE ROSKOP,
     KLAUS RUEDENBERG, ANDREW SAND, TOSAPORN SATTASATHUCHANA,
     NOZOMI SAWADA, MICHAEL W. SCHMIDT, PATRICK E. SCHNEIDER,
     JUNJI SEINO, PRACHI SHARMA, JUN SHEN, JIM SHOEMAKER,
     YINAN SHU, DEJUN SI, JONATHAN SKONE, LYUDMILA SLIPCHENKO,
     TONY SMITH, JIE SONG, MARK SPACKMAN, CASPER STEINMANN,
     WALT STEVENS, PEIFENG SU, SHUJUN SU, CHET SWALINA,
     CHINAMI TAKASHIMA, TETSUYA TAKETSUGU, ZHEN TAO,
     NANDUN THELLAMUREGE, SEIKEN TOKURA, JACOPO TOMASI,
     TSUGUKI TOUMA, TAKAO TSUNEDA, HIROAKI UMEDA,
     JORGE LUIS GALVEZ VALLEJO, YALI WANG, SIMON WEBB,
     AARON WEST, THERESA L. WINDUS, MARTA WLOCH,
     PENG XU, KIYOSHI YAGI, SUSUMU YANAGISAWA, YANG YANG,
     SOOHAENG YOO, TAKESHI YOSHIKAWA, FEDERICO ZAHARIEV,
     TOBY ZENG

  WHO ARE SUPPORTED BY THEIR INSTITUTION/UNIVERSITY/COMPANY/GROUP
  (IN ALPHABETICAL ORDER):

     EP ANALYTICS,
     FACULTES UNIVERSITAIRES NOTRE-DAME DE LA PAIX,
     INSTITUTE FOR MOLECULAR SCIENCE, IOWA STATE UNIVERSITY,
     JACKSON STATE UNIVERSITY, JOHANNES KEPLER UNIVERSITY LINZ,
     KYUNGPOOK NATIONAL UNIVERSITY
     KYUSHU UNIVERSITY, MICHIGAN STATE UNIVERSITY,
     MIE UNIVERSITY, THE MOLECULAR SCIENCES SOFTWARE INSTITUTE,
     MOSCOW STATE UNIVERSITY,
     N. COPERNICUS UNIVERSITY, NAGOYA UNIVERSITY,
     NANJING UNIVERSITY, NAT. INST. OF ADVANCED INDUSTRIAL
     SCIENCE AND TECHNOLOGY, NATIONAL INST. OF STANDARDS AND
     TECHNOLOGY, NESMEYANOV INSTITUTE OF ORGANOELEMENT COMPOUNDS
     OF RUSSIAN ACADEMY OF SCIENCES, OSAKA PREFECTURE UNIVERSITY,
     PENNSYLVANIA STATE UNIVERSITY, TOKYO INSTITUTE OF TECHNOLOGY,
     UNIVERSITY OF AARHUS, UNIVERSITY OF ALBERTA,
     UNIVERSITY OF CALIFORNIA AT SANTA BARBARA,
     UNIVERSITY OF COPENHAGEN, UNIVERSITY OF IOWA,
     UNIVERSITY OF MEMPHIS, UNIVERSITY OF MINNESOTA,
     UNIVERSITY OF NEBRASKA, UNIVERSITY OF NEW ENGLAND,
     UNIVERSITY OF NOTRE DAME, UNIVERSITY OF PISA,
     UNIVERSITY OF SILESIA, UNIVERSITY OF TOKYO,
     UNIVERSITY OF ZURICH, WASEDA UNIVERSITY,
     YALE UNIVERSITY

  GAMESS SOFTWARE MANAGEMENT TEAM FOR THIS RELEASE:
     MARK S. GORDON (TEAM LEAD),
     BRETT BODE (SENIOR ADVISOR),
     GIUSEPPE BARCA,
     COLLEEN BERTONI,
     KRISTOPHER KEIPERT (ADVISOR),
     SAROM S. LEANG (DEVELOPMENT LEAD),
     BUU PHAM,
     JACKSON HAYES (WEBSITE ADMINISTRATOR),
     PENG XU

 EXECUTION OF GAMESS BEGUN 19:56:15 20-OCT-2025    

            ECHO OF THE FIRST FEW INPUT CARDS -
 INPUT CARD> $CONTRL SCFTYP=UHF ICHARG=0 MULT=1                                             
 INPUT CARD> RUNTYP=OPTIMIZE                                                                
 INPUT CARD> $END                                                                           
 INPUT CARD> $BASIS GBASIS=N31 NGAUSS=6 NDFUNC=1 $END                                       
 INPUT CARD> $DATA                                                                          
 INPUT CARD> ... this is comment ...                                                        
 INPUT CARD> C1                                                                             
 INPUT CARD> CL   17   0.00000000   0.00000000   1.00762765                                 
 INPUT CARD> CL   17   0.00000000   0.00000000  -1.00762765                                 
 INPUT CARD> $END                                                                           
 INPUT CARD>                                                                                
      1000000 WORDS OF MEMORY AVAILABLE

     BASIS OPTIONS
     -------------
     GBASIS=N31          IGAUSS=       6      POLAR=POPN31  
     NDFUNC=       1     NFFUNC=       0     DIFFSP=       F
     NPFUNC=       0      DIFFS=       F     BASNAM=        


     RUN TITLE
     ---------
  ... this is comment ...                                                        

 THE POINT GROUP OF THE MOLECULE IS C1      
 THE ORDER OF THE PRINCIPAL AXIS IS     0

 ATOM      ATOMIC                      COORDINATES (BOHR)
           CHARGE         X                   Y                   Z
 CL         17.0     0.0000000000        0.0000000000        1.9041401562
 CL         17.0     0.0000000000        0.0000000000       -1.9041401562

          INTERNUCLEAR DISTANCES (ANGS.)
          ------------------------------

                1 CL         2 CL    

   1 CL      0.0000000    2.0152553 *
   2 CL      2.0152553 *  0.0000000  

  * ... LESS THAN  3.000


     ATOMIC BASIS SET
     ----------------
 THE CONTRACTED PRIMITIVE FUNCTIONS HAVE BEEN UNNORMALIZED
 THE CONTRACTED BASIS FUNCTIONS ARE NOW NORMALIZED TO UNITY

  SHELL TYPE  PRIMITIVE        EXPONENT          CONTRACTION COEFFICIENT(S)

 CL        

      1   S       1         25180.1000000    0.001832959848
      1   S       2          3780.3500000    0.014034198835
      1   S       3           860.4740000    0.069097394263
      1   S       4           242.1450000    0.237451980285
      1   S       5            77.3349000    0.483033959896
      1   S       6            26.2470000    0.339855971783

      2   L       7           491.7650000   -0.002297391417    0.003989400879
      2   L       8           116.9840000   -0.030713718938    0.030317706682
      2   L       9            37.4153000   -0.112528069386    0.129880028625
      2   L      10            13.7834000    0.045016327757    0.327951072278
      2   L      11             5.4521500    0.589353363399    0.453527099954
      2   L      12             2.2258800    0.465206286849    0.252154055573

      3   L      13             3.1864900   -0.251831288046   -0.014299314719
      3   L      14             1.1442700    0.061589315012    0.323572333073
      3   L      15             0.4203770    1.060185422549    0.743507765337

      4   L      16             0.1426570    1.000000000000    1.000000000000

      5   D      17             0.7500000    1.000000000000

 CL        

      6   S      18         25180.1000000    0.001832959848
      6   S      19          3780.3500000    0.014034198835
      6   S      20           860.4740000    0.069097394263
      6   S      21           242.1450000    0.237451980285
      6   S      22            77.3349000    0.483033959896
      6   S      23            26.2470000    0.339855971783

      7   L      24           491.7650000   -0.002297391417    0.003989400879
      7   L      25           116.9840000   -0.030713718938    0.030317706682
      7   L      26            37.4153000   -0.112528069386    0.129880028625
      7   L      27            13.7834000    0.045016327757    0.327951072278
      7   L      28             5.4521500    0.589353363399    0.453527099954
      7   L      29             2.2258800    0.465206286849    0.252154055573

      8   L      30             3.1864900   -0.251831288046   -0.014299314719
      8   L      31             1.1442700    0.061589315012    0.323572333073
      8   L      32             0.4203770    1.060185422549    0.743507765337

      9   L      33             0.1426570    1.000000000000    1.000000000000

     10   D      34             0.7500000    1.000000000000

 TOTAL NUMBER OF BASIS SET SHELLS             =   10
 NUMBER OF CARTESIAN GAUSSIAN BASIS FUNCTIONS =   38
 NUMBER OF ELECTRONS                          =   34
 CHARGE OF MOLECULE                           =    0
 SPIN MULTIPLICITY                            =    1
 NUMBER OF OCCUPIED ORBITALS (ALPHA)          =   17
 NUMBER OF OCCUPIED ORBITALS (BETA )          =   17
 TOTAL NUMBER OF ATOMS                        =    2
 THE NUCLEAR REPULSION ENERGY IS       75.8872709727

 THIS MOLECULE IS RECOGNIZED AS BEING LINEAR,
 ORBITAL LZ DEGENERACY TOLERANCE ETOLLZ= 1.00E-06

     $CONTRL OPTIONS
     ---------------
 SCFTYP=UHF          RUNTYP=OPTIMIZE     EXETYP=RUN     
 MPLEVL=       0     CITYP =NONE         CCTYP =NONE         VBTYP =NONE    
 DFTTYP=NONE         TDDFT =NONE    
 MULT  =       1     ICHARG=       0     NZVAR =       0     COORD =UNIQUE  
 PP    =NONE         RELWFN=NONE         LOCAL =NONE         NUMGRD=       F
 ISPHER=      -1     NOSYM =       0     MAXIT =      30     UNITS =ANGS    
 PLTORB=       F     MOLPLT=       F     AIMPAC=       F     FRIEND=        
 NPRINT=       7     IREST =       0     GEOM  =INPUT   
 NORMF =       0     NORMP =       0     ITOL  =      20     ICUT  =       9
 INTTYP=BEST         GRDTYP=BEST         QMTTOL= 1.0E-06

     $SYSTEM OPTIONS
     ---------------
  REPLICATED MEMORY=     1000000 WORDS (ON EVERY NODE).
 DISTRIBUTED MEMDDI=           0 MILLION WORDS IN AGGREGATE,
 MEMDDI DISTRIBUTED OVER   1 PROCESSORS IS           0 WORDS/PROCESSOR.
 TOTAL MEMORY REQUESTED ON EACH PROCESSOR=     1000000 WORDS.
 TIMLIM=      525600.00 MINUTES, OR     365.0 DAYS.
 PARALL= F  BALTYP=  DLB     KDIAG=    0  COREFL= F
 MXSEQ2=     300 MXSEQ3=     150  mem10=         0  mem22=         0

          ----------------
          PROPERTIES INPUT
          ----------------

     MOMENTS            FIELD           POTENTIAL          DENSITY
 IEMOM =       1   IEFLD =       0   IEPOT =       0   IEDEN =       0
 WHERE =COMASS     WHERE =NUCLEI     WHERE =NUCLEI     WHERE =NUCLEI  
 OUTPUT=BOTH       OUTPUT=BOTH       OUTPUT=BOTH       OUTPUT=BOTH    
 IEMINT=       0   IEFINT=       0                     IEDINT=       0
                                                       MORB  =       0
          EXTRAPOLATION IN EFFECT
          SOSCF IN EFFECT
          DIIS or SOSCF will be reset if energy rises
 ORBITAL PRINTING OPTION: NPREO=     1    38     2     1

     -------------------------------
     INTEGRAL TRANSFORMATION OPTIONS
     -------------------------------
     NWORD  =            0
     CUTTRF = 1.0E-09     MPTRAN =       0
     DIRTRF =       F     AOINTS =DUP     

          ----------------------
          INTEGRAL INPUT OPTIONS
          ----------------------
 NOPK  =       1 NORDER=       0 SCHWRZ=       F

     ------------------------------------------
     THE POINT GROUP IS C1 , NAXIS= 0, ORDER= 1
     ------------------------------------------

     DIMENSIONS OF THE SYMMETRY SUBSPACES ARE
 A   =   38

 ..... DONE SETTING UP THE RUN .....
 STEP CPU TIME =     0.00 TOTAL CPU TIME =          0.0 (      0.0 MIN)
 TOTAL WALL CLOCK TIME=          0.0 SECONDS, CPU UTILIZATION IS    97.53%


          -----------------------------
          STATIONARY POINT LOCATION RUN
          -----------------------------

 OBTAINING INITIAL HESSIAN, HESS=GUESS   
 CARTESIAN COORDINATE OPTIMIZATION USING BADGER'S RULE FORCE CONSTANT GUESS

          PARAMETERS CONTROLLING GEOMETRY SEARCH ARE
          METHOD =QA                  UPHESS =BFGS    
          NNEG   =         0          NFRZ   =         0
          NSTEP  =        50          IFOLOW =         1
          HESS   =GUESS               RESTAR =         F
          IHREP  =         0          HSSEND =         F
          NPRT   =         0          NPUN   =         0
          OPTTOL = 1.000E-04          RMIN   = 1.500E-03
          RMAX   = 1.000E-01          RLIM   = 7.000E-02
          DXMAX  = 3.000E-01          PURIFY =         F
          MOVIE  =         F          TRUPD  =         T
          TRMAX  = 5.000E-01          TRMIN  = 5.000E-02
          ITBMAT =         5          STPT   =         F
          STSTEP = 1.000E-02          PROJCT=          T

 BEGINNING GEOMETRY SEARCH POINT NSERCH=   0 ...

 COORDINATES OF ALL ATOMS ARE (ANGS)
   ATOM   CHARGE       X              Y              Z
 ------------------------------------------------------------
 CL         17.0   0.0000000000   0.0000000000   1.0076276500
 CL         17.0   0.0000000000   0.0000000000  -1.0076276500

          ********************
          1 ELECTRON INTEGRALS
          ********************
 ...... END OF ONE-ELECTRON INTEGRALS ......
 STEP CPU TIME =     0.00 TOTAL CPU TIME =          0.0 (      0.0 MIN)
 TOTAL WALL CLOCK TIME=          0.0 SECONDS, CPU UTILIZATION IS    97.83%

          -------------
          GUESS OPTIONS
          -------------
          GUESS =HUCKEL            NORB  =       0          NORDER=       0
          MIX   =       F          PRTMO =       F          PUNMO =       F
          TOLZ  = 1.0E-08          TOLE  = 1.0E-05
          SYMDEN=       F          PURIFY=       F

 INITIAL GUESS ORBITALS GENERATED BY HUCKEL   ROUTINE.
 HUCKEL GUESS REQUIRES     13778 WORDS.

 SYMMETRIES FOR INITIAL GUESS ORBITALS FOLLOW.  ALPHA SET(S).
    17 ORBITALS ARE OCCUPIED (   10 CORE ORBITALS).
    11=A       12=A       13=A       14=A       15=A       16=A       17=A   
    18=A       19=A       20=A       21=A       22=A       23=A       24=A   
    25=A       26=A       27=A   

 SYMMETRIES FOR INITIAL GUESS ORBITALS FOLLOW.   BETA SET(S).
    17 ORBITALS ARE OCCUPIED (   10 CORE ORBITALS).
    11=A       12=A       13=A       14=A       15=A       16=A       17=A   
    18=A       19=A       20=A       21=A       22=A       23=A       24=A   
    25=A       26=A       27=A   
 ...... END OF INITIAL ORBITAL SELECTION ......
 STEP CPU TIME =     0.00 TOTAL CPU TIME =          0.0 (      0.0 MIN)
 TOTAL WALL CLOCK TIME=          0.0 SECONDS, CPU UTILIZATION IS    98.20%

                    ----------------------
                    AO INTEGRAL TECHNOLOGY
                    ----------------------
     S,P,L SHELL ROTATED AXIS INTEGRALS, REPROGRAMMED BY
        KAZUYA ISHIMURA (IMS) AND JOSE SIERRA (SYNSTAR).
     S,P,D,L SHELL ROTATED AXIS INTEGRALS PROGRAMMED BY
        KAZUYA ISHIMURA (INSTITUTE FOR MOLECULAR SCIENCE).
     S,P,D,F,G SHELL TO TOTAL QUARTET ANGULAR MOMENTUM SUM 5,
        ERIC PROGRAM BY GRAHAM FLETCHER (ELORET AND NASA ADVANCED
        SUPERCOMPUTING DIVISION, AMES RESEARCH CENTER).
     S,P,D,F,G,L SHELL GENERAL RYS QUADRATURE PROGRAMMED BY
        MICHEL DUPUIS (PACIFIC NORTHWEST NATIONAL LABORATORY).

          --------------------
          2 ELECTRON INTEGRALS
          --------------------

 THE -PK- OPTION IS OFF, THE INTEGRALS ARE NOT IN SUPERMATRIX FORM.
 STORING   15000 INTEGRALS/RECORD ON DISK, USING 12 BYTES/INTEGRAL.
 TWO ELECTRON INTEGRAL EVALUATION REQUIRES   90451 WORDS OF MEMORY.
 II,JST,KST,LST =  1  1  1  1 NREC =         1 INTLOC =    1
 II,JST,KST,LST =  2  1  1  1 NREC =         1 INTLOC =    2
 II,JST,KST,LST =  3  1  1  1 NREC =         1 INTLOC =   34
 II,JST,KST,LST =  4  1  1  1 NREC =         1 INTLOC =  214
 II,JST,KST,LST =  5  1  1  1 NREC =         1 INTLOC =  776
 II,JST,KST,LST =  6  1  1  1 NREC =         1 INTLOC = 2864
 II,JST,KST,LST =  7  1  1  1 NREC =         1 INTLOC = 3687
 II,JST,KST,LST =  8  1  1  1 NREC =         1 INTLOC = 8812
 II,JST,KST,LST =  9  1  1  1 NREC =         2 INTLOC = 3695
 II,JST,KST,LST = 10  1  1  1 NREC =         3 INTLOC = 3841
 TOTAL NUMBER OF NONZERO TWO-ELECTRON INTEGRALS =               67016
          5 INTEGRAL RECORDS WERE STORED ON DISK FILE  8.
  ...... END OF TWO-ELECTRON INTEGRALS .....
 STEP CPU TIME =     0.01 TOTAL CPU TIME =          0.0 (      0.0 MIN)
 TOTAL WALL CLOCK TIME=          0.0 SECONDS, CPU UTILIZATION IS    99.39%

          ---------------------------
                  UHF SCF CALCULATION
          ---------------------------

     NUCLEAR ENERGY =        75.8872709727
     MAXIT = 30     NPUNCH=  2     MULT=  1
     EXTRAP=T  DAMP=F  SHIFT=F  RSTRCT=F  DIIS=F  SOSCF=T
     DENSITY MATRIX CONV=  1.00E-05
     SOSCF WILL OPTIMIZE     357 ALPHA AND     357 BETA ROTATION ANGLES.
     SOGTOL= 2.500E-01
     MEMORY REQUIRED FOR UHF/ROHF ITERS=     50046 WORDS.

 ITER EX      TOTAL ENERGY        E CHANGE  DENSITY CHANGE    ORB. GRAD 
   1  0     -918.4800651755  -918.4800651755   0.186373845   0.000000000
          ---------------START SECOND ORDER SCF---------------
   2  1     -918.8955624887    -0.4154973132   0.053889466   0.045843136
   3  2     -918.9107024010    -0.0151399123   0.030174227   0.022823769
   4  3     -918.9125030124    -0.0018006114   0.004946027   0.003337783
   5  4     -918.9125532351    -0.0000502227   0.000395736   0.000268064
   6  5     -918.9125538854    -0.0000006503   0.000200972   0.000053627
   7  6     -918.9125539119    -0.0000000265   0.000019765   0.000006728
   8  7     -918.9125539124    -0.0000000005   0.000003390   0.000001411
   9  8     -918.9125539124    -0.0000000000   0.000000203   0.000000065

          -----------------
          DENSITY CONVERGED
          -----------------
     TIME TO FORM FOCK OPERATORS=       0.0 SECONDS (       0.0 SEC/ITER)
     TIME TO SOLVE SCF EQUATIONS=       0.0 SECONDS (       0.0 SEC/ITER)

 FINAL UHF ENERGY IS     -918.9125539124 AFTER   9 ITERATIONS

          --------------------
          SPIN SZ   =    0.000
          S-SQUARED =   -0.000
          --------------------

 LZ VALUE ANALYSIS FOR THE MOS
 ----------------------------------------
 MO     1 (    1) HAS LZ(WEIGHT)= 0.00(100.0%) 
 MO     2 (    1) HAS LZ(WEIGHT)= 0.00(100.0%) 
 MO     3 (    2) HAS LZ(WEIGHT)= 0.00(100.0%) 
 MO     4 (    3) HAS LZ(WEIGHT)= 0.00(100.0%) 
 MO     5 (    4) HAS LZ(WEIGHT)= 0.00(100.0%) 
 MO     6 (    5) HAS LZ(WEIGHT)= 0.00(100.0%) 
 MO     7 (    6) HAS LZ(WEIGHT)=-1.00( 50.0%)  1.00( 50.0%) 
 MO     8 (    6) HAS LZ(WEIGHT)=-1.00( 50.0%)  1.00( 50.0%) 
 MO     9 (    7) HAS LZ(WEIGHT)=-1.00( 50.0%)  1.00( 50.0%) 
 MO    10 (    7) HAS LZ(WEIGHT)=-1.00( 50.0%)  1.00( 50.0%) 
 MO    11 (    8) HAS LZ(WEIGHT)= 0.00(100.0%) 
 MO    12 (    9) HAS LZ(WEIGHT)= 0.00(100.0%) 
 MO    13 (   10) HAS LZ(WEIGHT)= 0.00(100.0%) 
 MO    14 (   11) HAS LZ(WEIGHT)=-1.00( 50.0%)  1.00( 50.0%) 
 MO    15 (   11) HAS LZ(WEIGHT)=-1.00( 50.0%)  1.00( 50.0%) 
 MO    16 (   12) HAS LZ(WEIGHT)=-1.00( 50.0%)  1.00( 50.0%) 
 MO    17 (   12) HAS LZ(WEIGHT)=-1.00( 50.0%)  1.00( 50.0%) 
 MO    18 (   13) HAS LZ(WEIGHT)= 0.00(100.0%) 
 MO    19 (   14) HAS LZ(WEIGHT)= 0.00(100.0%) 
 MO    20 (   15) HAS LZ(WEIGHT)= 0.00(100.0%) 
 MO    21 (   16) HAS LZ(WEIGHT)= 0.00(100.0%) 
 MO    22 (   17) HAS LZ(WEIGHT)=-1.00( 50.0%)  1.00( 50.0%) 
 MO    23 (   17) HAS LZ(WEIGHT)=-1.00( 50.0%)  1.00( 50.0%) 
 MO    24 (   18) HAS LZ(WEIGHT)=-1.00( 50.0%)  1.00( 50.0%) 
 MO    25 (   18) HAS LZ(WEIGHT)=-1.00( 50.0%)  1.00( 50.0%) 
 MO    26 (   19) HAS LZ(WEIGHT)= 0.00(100.0%) 
 MO    27 (   20) HAS LZ(WEIGHT)=-1.00( 50.0%)  1.00( 50.0%) 
 MO    28 (   20) HAS LZ(WEIGHT)=-1.00( 50.0%)  1.00( 50.0%) 
 MO    29 (   21) HAS LZ(WEIGHT)= 0.00(100.0%) 
 MO    30 (   22) HAS LZ(WEIGHT)=-2.00( 50.0%)  2.00( 50.0%) 
 MO    31 (   22) HAS LZ(WEIGHT)=-2.00( 50.0%)  2.00( 50.0%) 
 MO    32 (   23) HAS LZ(WEIGHT)=-2.00( 50.0%)  2.00( 50.0%) 
 MO    33 (   23) HAS LZ(WEIGHT)=-2.00( 50.0%)  2.00( 50.0%) 
 MO    34 (   24) HAS LZ(WEIGHT)=-1.00( 50.0%)  1.00( 50.0%) 
 MO    35 (   24) HAS LZ(WEIGHT)=-1.00( 50.0%)  1.00( 50.0%) 
 MO    36 (   25) HAS LZ(WEIGHT)= 0.00(100.0%) 
 MO    37 (   26) HAS LZ(WEIGHT)= 0.00(100.0%) 
 MO    38 (   27) HAS LZ(WEIGHT)= 0.00(100.0%) 

  ----- ALPHA SET ----- 

          ------------
          EIGENVECTORS
          ------------

                      1          2          3          4          5
                 -104.8868  -104.8868   -10.6191   -10.6190    -8.0890
                     A          A          A          A          A   
    1  CL 1  S    0.704362   0.704363  -0.202764   0.202769  -0.001324
    2  CL 1  S    0.010346   0.010352   0.728759  -0.728881   0.004878
    3  CL 1  X    0.000000  -0.000000   0.000000   0.000000  -0.000000
    4  CL 1  Y    0.000000  -0.000000   0.000000   0.000000  -0.000000
    5  CL 1  Z   -0.000053  -0.000036  -0.004058   0.004004   0.702009
    6  CL 1  S   -0.012516  -0.012539   0.018328  -0.018171  -0.003036
    7  CL 1  X    0.000000  -0.000000   0.000000   0.000000  -0.000000
    8  CL 1  Y    0.000000  -0.000000   0.000000   0.000000  -0.000000
    9  CL 1  Z    0.000085  -0.000020  -0.000737   0.000852   0.016108
   10  CL 1  S    0.001229   0.000950  -0.003664   0.006370  -0.000209
   11  CL 1  X    0.000000  -0.000000   0.000000   0.000000  -0.000000
   12  CL 1  Y    0.000000  -0.000000   0.000000   0.000000  -0.000000
   13  CL 1  Z   -0.000147  -0.000006   0.000339  -0.001875  -0.004152
   14  CL 1 XX    0.004407   0.004436  -0.001268   0.001062   0.000830
   15  CL 1 YY    0.004407   0.004436  -0.001268   0.001062   0.000830
   16  CL 1 ZZ    0.004370   0.004495  -0.001206   0.000575   0.001043
   17  CL 1 XY    0.000000  -0.000000   0.000000   0.000000  -0.000000
   18  CL 1 XZ    0.000000  -0.000000   0.000000   0.000000  -0.000000
   19  CL 1 YZ    0.000000  -0.000000   0.000000   0.000000  -0.000000
   20  CL 2  S   -0.704362   0.704363  -0.202764  -0.202769  -0.001324
   21  CL 2  S   -0.010346   0.010352   0.728759   0.728881   0.004878
   22  CL 2  X    0.000000  -0.000000   0.000000   0.000000  -0.000000
   23  CL 2  Y    0.000000  -0.000000   0.000000   0.000000  -0.000000
   24  CL 2  Z   -0.000053   0.000036   0.004058   0.004004  -0.702009
   25  CL 2  S    0.012516  -0.012539   0.018328   0.018171  -0.003036
   26  CL 2  X    0.000000  -0.000000   0.000000   0.000000  -0.000000
   27  CL 2  Y    0.000000  -0.000000   0.000000   0.000000  -0.000000
   28  CL 2  Z    0.000085   0.000020   0.000737   0.000852  -0.016108
   29  CL 2  S   -0.001229   0.000950  -0.003664  -0.006370  -0.000209
   30  CL 2  X    0.000000  -0.000000   0.000000   0.000000  -0.000000
   31  CL 2  Y    0.000000  -0.000000   0.000000   0.000000  -0.000000
   32  CL 2  Z   -0.000147   0.000006  -0.000339  -0.001875   0.004152
   33  CL 2 XX   -0.004407   0.004436  -0.001268  -0.001062   0.000830
   34  CL 2 YY   -0.004407   0.004436  -0.001268  -0.001062   0.000830
   35  CL 2 ZZ   -0.004370   0.004495  -0.001206  -0.000575   0.001043
   36  CL 2 XY    0.000000  -0.000000   0.000000   0.000000  -0.000000
   37  CL 2 XZ    0.000000  -0.000000   0.000000   0.000000  -0.000000
   38  CL 2 YZ    0.000000  -0.000000   0.000000   0.000000  -0.000000

                      6          7          8          9         10
                   -8.0889    -8.0836    -8.0836    -8.0836    -8.0836
                     A          A          A          A          A   
    1  CL 1  S   -0.001291  -0.000000  -0.000000  -0.000000  -0.000000
    2  CL 1  S    0.004784  -0.000000  -0.000000  -0.000000  -0.000000
    3  CL 1  X    0.000000   0.092339   0.696543   0.582509  -0.392971
    4  CL 1  Y    0.000000  -0.696543   0.092339   0.392971   0.582509
    5  CL 1  Z    0.701877  -0.000000  -0.000000  -0.000000  -0.000000
    6  CL 1  S   -0.001912  -0.000000  -0.000000  -0.000000  -0.000000
    7  CL 1  X    0.000000   0.001860   0.014032   0.011617  -0.007837
    8  CL 1  Y    0.000000  -0.014032   0.001860   0.007837   0.011617
    9  CL 1  Z    0.016626  -0.000000  -0.000000  -0.000000  -0.000000
   10  CL 1  S    0.002285  -0.000000  -0.000000  -0.000000  -0.000000
   11  CL 1  X    0.000000  -0.000468  -0.003530  -0.002334   0.001574
   12  CL 1  Y    0.000000   0.003530  -0.000468  -0.001574  -0.002334
   13  CL 1  Z   -0.004951  -0.000000  -0.000000  -0.000000  -0.000000
   14  CL 1 XX    0.000791  -0.000000  -0.000000  -0.000000  -0.000000
   15  CL 1 YY    0.000791  -0.000000  -0.000000  -0.000000  -0.000000
   16  CL 1 ZZ   -0.000699  -0.000000  -0.000000  -0.000000  -0.000000
   17  CL 1 XY    0.000000  -0.000000  -0.000000  -0.000000  -0.000000
   18  CL 1 XZ    0.000000  -0.000039  -0.000295  -0.000215   0.000145
   19  CL 1 YZ    0.000000   0.000295  -0.000039  -0.000145  -0.000215
   20  CL 2  S    0.001291  -0.000000  -0.000000  -0.000000  -0.000000
   21  CL 2  S   -0.004784  -0.000000  -0.000000  -0.000000  -0.000000
   22  CL 2  X    0.000000  -0.092339  -0.696543   0.582509  -0.392971
   23  CL 2  Y    0.000000   0.696543  -0.092339   0.392971   0.582509
   24  CL 2  Z    0.701877  -0.000000  -0.000000  -0.000000  -0.000000
   25  CL 2  S    0.001912  -0.000000  -0.000000  -0.000000  -0.000000
   26  CL 2  X    0.000000  -0.001860  -0.014032   0.011617  -0.007837
   27  CL 2  Y    0.000000   0.014032  -0.001860   0.007837   0.011617
   28  CL 2  Z    0.016626  -0.000000  -0.000000  -0.000000  -0.000000
   29  CL 2  S   -0.002285  -0.000000  -0.000000  -0.000000  -0.000000
   30  CL 2  X    0.000000   0.000468   0.003530  -0.002334   0.001574
   31  CL 2  Y    0.000000  -0.003530   0.000468  -0.001574  -0.002334
   32  CL 2  Z   -0.004951  -0.000000  -0.000000  -0.000000  -0.000000
   33  CL 2 XX   -0.000791  -0.000000  -0.000000  -0.000000  -0.000000
   34  CL 2 YY   -0.000791  -0.000000  -0.000000  -0.000000  -0.000000
   35  CL 2 ZZ    0.000699  -0.000000  -0.000000  -0.000000  -0.000000
   36  CL 2 XY    0.000000  -0.000000  -0.000000  -0.000000  -0.000000
   37  CL 2 XZ    0.000000  -0.000039  -0.000295   0.000215  -0.000145
   38  CL 2 YZ    0.000000   0.000295  -0.000039   0.000145   0.000215

                     11         12         13         14         15
                   -1.2196    -1.0216    -0.5938    -0.5686    -0.5686
                     A          A          A          A          A   
    1  CL 1  S    0.055141  -0.059734  -0.016030  -0.000000   0.000000
    2  CL 1  S   -0.250212   0.272924   0.073853  -0.000000   0.000000
    3  CL 1  X   -0.000000  -0.000000   0.000000  -0.179731   0.075883
    4  CL 1  Y   -0.000000  -0.000000   0.000000  -0.075883  -0.179731
    5  CL 1  Z    0.045904   0.032146   0.197868  -0.000000   0.000000
    6  CL 1  S    0.488375  -0.553238  -0.173841  -0.000000   0.000000
    7  CL 1  X   -0.000000  -0.000000   0.000000   0.466510  -0.196963
    8  CL 1  Y   -0.000000  -0.000000   0.000000   0.196963   0.466510
    9  CL 1  Z   -0.109163  -0.078416  -0.506546  -0.000000   0.000000
   10  CL 1  S    0.186330  -0.286736  -0.128757  -0.000000   0.000000
   11  CL 1  X   -0.000000  -0.000000   0.000000   0.225013  -0.095002
   12  CL 1  Y   -0.000000  -0.000000   0.000000   0.095002   0.225013
   13  CL 1  Z   -0.016485   0.002656  -0.195518  -0.000000   0.000000
   14  CL 1 XX   -0.008178  -0.004008  -0.020130  -0.000000   0.000000
   15  CL 1 YY   -0.008178  -0.004008  -0.020130  -0.000000   0.000000
   16  CL 1 ZZ    0.038948   0.011974   0.075289  -0.000000   0.000000
   17  CL 1 XY   -0.000000  -0.000000   0.000000  -0.000000   0.000000
   18  CL 1 XZ   -0.000000  -0.000000   0.000000  -0.026377   0.011137
   19  CL 1 YZ   -0.000000  -0.000000   0.000000  -0.011137  -0.026377
   20  CL 2  S    0.055141   0.059734  -0.016030  -0.000000   0.000000
   21  CL 2  S   -0.250212  -0.272924   0.073853  -0.000000   0.000000
   22  CL 2  X   -0.000000  -0.000000   0.000000  -0.179731   0.075883
   23  CL 2  Y   -0.000000  -0.000000   0.000000  -0.075883  -0.179731
   24  CL 2  Z   -0.045904   0.032146  -0.197868  -0.000000   0.000000
   25  CL 2  S    0.488375   0.553238  -0.173841  -0.000000   0.000000
   26  CL 2  X   -0.000000  -0.000000   0.000000   0.466510  -0.196963
   27  CL 2  Y   -0.000000  -0.000000   0.000000   0.196963   0.466510
   28  CL 2  Z    0.109163  -0.078416   0.506546  -0.000000   0.000000
   29  CL 2  S    0.186330   0.286736  -0.128757  -0.000000   0.000000
   30  CL 2  X   -0.000000  -0.000000   0.000000   0.225013  -0.095002
   31  CL 2  Y   -0.000000  -0.000000   0.000000   0.095002   0.225013
   32  CL 2  Z    0.016485   0.002656   0.195518  -0.000000   0.000000
   33  CL 2 XX   -0.008178   0.004008  -0.020130  -0.000000   0.000000
   34  CL 2 YY   -0.008178   0.004008  -0.020130  -0.000000   0.000000
   35  CL 2 ZZ    0.038948  -0.011974   0.075289  -0.000000   0.000000
   36  CL 2 XY   -0.000000  -0.000000   0.000000  -0.000000   0.000000
   37  CL 2 XZ   -0.000000  -0.000000   0.000000   0.026377  -0.011137
   38  CL 2 YZ   -0.000000  -0.000000   0.000000   0.011137   0.026377

                     16         17         18         19         20
                   -0.4510    -0.4510     0.0250     0.4888     0.5607
                     A          A          A          A          A   
    1  CL 1  S   -0.000000  -0.000000  -0.019050  -0.049149  -0.027169
    2  CL 1  S   -0.000000  -0.000000   0.092180   0.069378   0.037318
    3  CL 1  X    0.191088  -0.085864   0.000000  -0.000000  -0.000000
    4  CL 1  Y   -0.085864  -0.191088   0.000000  -0.000000  -0.000000
    5  CL 1  Z   -0.000000  -0.000000  -0.192616   0.034504   0.194329
    6  CL 1  S   -0.000000  -0.000000  -0.184791  -0.949659  -0.540530
    7  CL 1  X   -0.504481   0.226684   0.000000  -0.000000  -0.000000
    8  CL 1  Y    0.226684   0.504481   0.000000  -0.000000  -0.000000
    9  CL 1  Z   -0.000000  -0.000000   0.498017  -0.111217  -0.715934
   10  CL 1  S   -0.000000  -0.000000  -0.454189   1.125249   0.440190
   11  CL 1  X   -0.291961   0.131190   0.000000  -0.000000  -0.000000
   12  CL 1  Y    0.131190   0.291961   0.000000  -0.000000  -0.000000
   13  CL 1  Z   -0.000000  -0.000000   0.736915   0.163907   0.835694
   14  CL 1 XX   -0.000000  -0.000000  -0.021617  -0.052032  -0.023276
   15  CL 1 YY   -0.000000  -0.000000  -0.021617  -0.052032  -0.023276
   16  CL 1 ZZ   -0.000000  -0.000000   0.050868  -0.178260  -0.090629
   17  CL 1 XY   -0.000000  -0.000000   0.000000  -0.000000  -0.000000
   18  CL 1 XZ   -0.010295   0.004626   0.000000  -0.000000  -0.000000
   19  CL 1 YZ    0.004626   0.010295   0.000000  -0.000000  -0.000000
   20  CL 2  S   -0.000000  -0.000000   0.019050  -0.049149   0.027169
   21  CL 2  S   -0.000000  -0.000000  -0.092180   0.069378  -0.037318
   22  CL 2  X   -0.191088   0.085864   0.000000  -0.000000  -0.000000
   23  CL 2  Y    0.085864   0.191088   0.000000  -0.000000  -0.000000
   24  CL 2  Z   -0.000000  -0.000000  -0.192616  -0.034504   0.194329
   25  CL 2  S   -0.000000  -0.000000   0.184791  -0.949659   0.540530
   26  CL 2  X    0.504481  -0.226684   0.000000  -0.000000  -0.000000
   27  CL 2  Y   -0.226684  -0.504481   0.000000  -0.000000  -0.000000
   28  CL 2  Z   -0.000000  -0.000000   0.498017   0.111217  -0.715934
   29  CL 2  S   -0.000000  -0.000000   0.454189   1.125249  -0.440190
   30  CL 2  X    0.291961  -0.131190   0.000000  -0.000000  -0.000000
   31  CL 2  Y   -0.131190  -0.291961   0.000000  -0.000000  -0.000000
   32  CL 2  Z   -0.000000  -0.000000   0.736915  -0.163907   0.835694
   33  CL 2 XX   -0.000000  -0.000000   0.021617  -0.052032   0.023276
   34  CL 2 YY   -0.000000  -0.000000   0.021617  -0.052032   0.023276
   35  CL 2 ZZ   -0.000000  -0.000000  -0.050868  -0.178260   0.090629
   36  CL 2 XY   -0.000000  -0.000000   0.000000  -0.000000  -0.000000
   37  CL 2 XZ   -0.010295   0.004626   0.000000  -0.000000  -0.000000
   38  CL 2 YZ    0.004626   0.010295   0.000000  -0.000000  -0.000000

                     21         22         23         24         25
                    0.5850     0.5909     0.5909     0.6419     0.6419
                     A          A          A          A          A   
    1  CL 1  S    0.001368   0.000000  -0.000000  -0.000000   0.000000
    2  CL 1  S    0.021250   0.000000  -0.000000  -0.000000   0.000000
    3  CL 1  X   -0.000000   0.002152  -0.213134   0.039959  -0.198280
    4  CL 1  Y   -0.000000  -0.213134  -0.002152   0.198280   0.039959
    5  CL 1  Z    0.154356   0.000000  -0.000000  -0.000000   0.000000
    6  CL 1  S    0.053030   0.000000  -0.000000  -0.000000   0.000000
    7  CL 1  X   -0.000000  -0.008325   0.824569  -0.160260   0.795231
    8  CL 1  Y   -0.000000   0.824569   0.008325  -0.795231  -0.160260
    9  CL 1  Z   -0.687856   0.000000  -0.000000  -0.000000   0.000000
   10  CL 1  S    0.039267   0.000000  -0.000000  -0.000000   0.000000
   11  CL 1  X   -0.000000   0.007665  -0.759167   0.213179  -1.057824
   12  CL 1  Y   -0.000000  -0.759167  -0.007665   1.057824   0.213179
   13  CL 1  Z    0.802618   0.000000  -0.000000  -0.000000   0.000000
   14  CL 1 XX   -0.112330   0.000000  -0.000000  -0.000000   0.000000
   15  CL 1 YY   -0.112330   0.000000  -0.000000  -0.000000   0.000000
   16  CL 1 ZZ    0.360677   0.000000  -0.000000  -0.000000   0.000000
   17  CL 1 XY   -0.000000   0.000000  -0.000000  -0.000000   0.000000
   18  CL 1 XZ   -0.000000  -0.000278   0.027578   0.017744  -0.088049
   19  CL 1 YZ   -0.000000   0.027578   0.000278   0.088049   0.017744
   20  CL 2  S    0.001368   0.000000  -0.000000  -0.000000   0.000000
   21  CL 2  S    0.021250   0.000000  -0.000000  -0.000000   0.000000
   22  CL 2  X   -0.000000   0.002152  -0.213134  -0.039959   0.198280
   23  CL 2  Y   -0.000000  -0.213134  -0.002152  -0.198280  -0.039959
   24  CL 2  Z   -0.154356   0.000000  -0.000000  -0.000000   0.000000
   25  CL 2  S    0.053030   0.000000  -0.000000  -0.000000   0.000000
   26  CL 2  X   -0.000000  -0.008325   0.824569   0.160260  -0.795231
   27  CL 2  Y   -0.000000   0.824569   0.008325   0.795231   0.160260
   28  CL 2  Z    0.687856   0.000000  -0.000000  -0.000000   0.000000
   29  CL 2  S    0.039267   0.000000  -0.000000  -0.000000   0.000000
   30  CL 2  X   -0.000000   0.007665  -0.759167  -0.213179   1.057824
   31  CL 2  Y   -0.000000  -0.759167  -0.007665  -1.057824  -0.213179
   32  CL 2  Z   -0.802618   0.000000  -0.000000  -0.000000   0.000000
   33  CL 2 XX   -0.112330   0.000000  -0.000000  -0.000000   0.000000
   34  CL 2 YY   -0.112330   0.000000  -0.000000  -0.000000   0.000000
   35  CL 2 ZZ    0.360677   0.000000  -0.000000  -0.000000   0.000000
   36  CL 2 XY   -0.000000   0.000000  -0.000000  -0.000000   0.000000
   37  CL 2 XZ   -0.000000   0.000278  -0.027578   0.017744  -0.088049
   38  CL 2 YZ   -0.000000  -0.027578  -0.000278   0.088049   0.017744

                     26         27         28         29         30
                    0.7111     0.9709     0.9709     1.0397     1.0884
                     A          A          A          A          A   
    1  CL 1  S    0.041906   0.000000   0.000000  -0.016550  -0.000000
    2  CL 1  S    0.009044   0.000000   0.000000   0.036085  -0.000000
    3  CL 1  X   -0.000000   0.001855   0.000268  -0.000000  -0.000000
    4  CL 1  Y   -0.000000   0.000268  -0.001855  -0.000000  -0.000000
    5  CL 1  Z    0.119615   0.000000   0.000000  -0.136412  -0.000000
    6  CL 1  S    1.019806   0.000000   0.000000  -0.339940  -0.000000
    7  CL 1  X   -0.000000  -0.027631  -0.003991  -0.000000  -0.000000
    8  CL 1  Y   -0.000000  -0.003991   0.027631  -0.000000  -0.000000
    9  CL 1  Z   -0.475727   0.000000   0.000000   0.539349  -0.000000
   10  CL 1  S   -2.532509   0.000000   0.000000   0.136141  -0.000000
   11  CL 1  X   -0.000000   0.091888   0.013273  -0.000000  -0.000000
   12  CL 1  Y   -0.000000   0.013273  -0.091888  -0.000000  -0.000000
   13  CL 1  Z    1.615800   0.000000   0.000000  -0.440416  -0.000000
   14  CL 1 XX    0.031333   0.000000   0.000000  -0.283078   0.611046
   15  CL 1 YY    0.031333   0.000000   0.000000  -0.283078  -0.611046
   16  CL 1 ZZ    0.205274   0.000000   0.000000   0.597768  -0.000000
   17  CL 1 XY   -0.000000   0.000000   0.000000  -0.000000  -0.000000
   18  CL 1 XZ   -0.000000   0.686032   0.099094  -0.000000  -0.000000
   19  CL 1 YZ   -0.000000   0.099094  -0.686032  -0.000000  -0.000000
   20  CL 2  S   -0.041906   0.000000   0.000000  -0.016550  -0.000000
   21  CL 2  S   -0.009044   0.000000   0.000000   0.036085  -0.000000
   22  CL 2  X   -0.000000   0.001855   0.000268  -0.000000  -0.000000
   23  CL 2  Y   -0.000000   0.000268  -0.001855  -0.000000  -0.000000
   24  CL 2  Z    0.119615   0.000000   0.000000   0.136412  -0.000000
   25  CL 2  S   -1.019806   0.000000   0.000000  -0.339940  -0.000000
   26  CL 2  X   -0.000000  -0.027631  -0.003991  -0.000000  -0.000000
   27  CL 2  Y   -0.000000  -0.003991   0.027631  -0.000000  -0.000000
   28  CL 2  Z   -0.475727   0.000000   0.000000  -0.539349  -0.000000
   29  CL 2  S    2.532509   0.000000   0.000000   0.136141  -0.000000
   30  CL 2  X   -0.000000   0.091888   0.013273  -0.000000  -0.000000
   31  CL 2  Y   -0.000000   0.013273  -0.091888  -0.000000  -0.000000
   32  CL 2  Z    1.615800   0.000000   0.000000   0.440416  -0.000000
   33  CL 2 XX   -0.031333   0.000000   0.000000  -0.283078   0.611046
   34  CL 2 YY   -0.031333   0.000000   0.000000  -0.283078  -0.611046
   35  CL 2 ZZ   -0.205274   0.000000   0.000000   0.597768  -0.000000
   36  CL 2 XY   -0.000000   0.000000   0.000000  -0.000000  -0.000000
   37  CL 2 XZ   -0.000000  -0.686032  -0.099094  -0.000000  -0.000000
   38  CL 2 YZ   -0.000000  -0.099094   0.686032  -0.000000  -0.000000

                     31         32         33         34         35
                    1.0884     1.1190     1.1190     1.2452     1.2452
                     A          A          A          A          A   
    1  CL 1  S    0.000000  -0.000000   0.000000   0.000000  -0.000000
    2  CL 1  S    0.000000  -0.000000   0.000000   0.000000  -0.000000
    3  CL 1  X    0.000000  -0.000000   0.000000  -0.022255   0.016664
    4  CL 1  Y    0.000000  -0.000000   0.000000  -0.016664  -0.022255
    5  CL 1  Z    0.000000  -0.000000   0.000000   0.000000  -0.000000
    6  CL 1  S    0.000000  -0.000000   0.000000   0.000000  -0.000000
    7  CL 1  X    0.000000  -0.000000   0.000000   0.108195  -0.081014
    8  CL 1  Y    0.000000  -0.000000   0.000000   0.081014   0.108195
    9  CL 1  Z    0.000000  -0.000000   0.000000   0.000000  -0.000000
   10  CL 1  S    0.000000  -0.000000   0.000000   0.000000  -0.000000
   11  CL 1  X    0.000000  -0.000000   0.000000  -0.215041   0.161018
   12  CL 1  Y    0.000000  -0.000000   0.000000  -0.161018  -0.215041
   13  CL 1  Z    0.000000  -0.000000   0.000000   0.000000  -0.000000
   14  CL 1 XX    0.000000   0.613707  -0.000000   0.000000  -0.000000
   15  CL 1 YY   -0.000000  -0.613707   0.000000   0.000000  -0.000000
   16  CL 1 ZZ    0.000000  -0.000000   0.000000   0.000000  -0.000000
   17  CL 1 XY    0.705575  -0.000000  -0.708648   0.000000  -0.000000
   18  CL 1 XZ    0.000000  -0.000000   0.000000   0.578037  -0.432822
   19  CL 1 YZ    0.000000  -0.000000   0.000000   0.432822   0.578037
   20  CL 2  S    0.000000  -0.000000   0.000000   0.000000  -0.000000
   21  CL 2  S    0.000000  -0.000000   0.000000   0.000000  -0.000000
   22  CL 2  X    0.000000  -0.000000   0.000000   0.022255  -0.016664
   23  CL 2  Y    0.000000  -0.000000   0.000000   0.016664   0.022255
   24  CL 2  Z    0.000000  -0.000000   0.000000   0.000000  -0.000000
   25  CL 2  S    0.000000  -0.000000   0.000000   0.000000  -0.000000
   26  CL 2  X    0.000000  -0.000000   0.000000  -0.108195   0.081014
   27  CL 2  Y    0.000000  -0.000000   0.000000  -0.081014  -0.108195
   28  CL 2  Z    0.000000  -0.000000   0.000000   0.000000  -0.000000
   29  CL 2  S    0.000000  -0.000000   0.000000   0.000000  -0.000000
   30  CL 2  X    0.000000  -0.000000   0.000000   0.215041  -0.161018
   31  CL 2  Y    0.000000  -0.000000   0.000000   0.161018   0.215041
   32  CL 2  Z    0.000000  -0.000000   0.000000   0.000000  -0.000000
   33  CL 2 XX    0.000000  -0.613707   0.000000   0.000000  -0.000000
   34  CL 2 YY   -0.000000   0.613707  -0.000000   0.000000  -0.000000
   35  CL 2 ZZ    0.000000  -0.000000   0.000000   0.000000  -0.000000
   36  CL 2 XY    0.705575   0.000000   0.708648   0.000000  -0.000000
   37  CL 2 XZ    0.000000  -0.000000   0.000000   0.578037  -0.432822
   38  CL 2 YZ    0.000000  -0.000000   0.000000   0.432822   0.578037

                     36         37         38
                    1.5818     4.5476     4.6646
                     A          A          A   
    1  CL 1  S    0.008767   0.121033  -0.119268
    2  CL 1  S    0.062155  -0.568507   0.573641
    3  CL 1  X    0.000000  -0.000000  -0.000000
    4  CL 1  Y    0.000000  -0.000000  -0.000000
    5  CL 1  Z   -0.022903   0.000364   0.005796
    6  CL 1  S    0.365160   3.914426  -3.869425
    7  CL 1  X    0.000000  -0.000000  -0.000000
    8  CL 1  Y    0.000000  -0.000000  -0.000000
    9  CL 1  Z    0.011110   0.025023  -0.011867
   10  CL 1  S   -1.389110   0.035347  -0.292415
   11  CL 1  X    0.000000  -0.000000  -0.000000
   12  CL 1  Y    0.000000  -0.000000  -0.000000
   13  CL 1  Z    0.921936  -0.020517   0.176990
   14  CL 1 XX    0.459459  -1.749558   1.740694
   15  CL 1 YY    0.459459  -1.749558   1.740694
   16  CL 1 ZZ   -0.735388  -1.703116   1.726503
   17  CL 1 XY    0.000000  -0.000000  -0.000000
   18  CL 1 XZ    0.000000  -0.000000  -0.000000
   19  CL 1 YZ    0.000000  -0.000000  -0.000000
   20  CL 2  S   -0.008767   0.121033   0.119268
   21  CL 2  S   -0.062155  -0.568507  -0.573641
   22  CL 2  X    0.000000  -0.000000  -0.000000
   23  CL 2  Y    0.000000  -0.000000  -0.000000
   24  CL 2  Z   -0.022903  -0.000364   0.005796
   25  CL 2  S   -0.365160   3.914426   3.869425
   26  CL 2  X    0.000000  -0.000000  -0.000000
   27  CL 2  Y    0.000000  -0.000000  -0.000000
   28  CL 2  Z    0.011110  -0.025023  -0.011867
   29  CL 2  S    1.389110   0.035347   0.292415
   30  CL 2  X    0.000000  -0.000000  -0.000000
   31  CL 2  Y    0.000000  -0.000000  -0.000000
   32  CL 2  Z    0.921936   0.020517   0.176990
   33  CL 2 XX   -0.459459  -1.749558  -1.740694
   34  CL 2 YY   -0.459459  -1.749558  -1.740694
   35  CL 2 ZZ    0.735388  -1.703116  -1.726503
   36  CL 2 XY    0.000000  -0.000000  -0.000000
   37  CL 2 XZ    0.000000  -0.000000  -0.000000
   38  CL 2 YZ    0.000000  -0.000000  -0.000000

 LZ VALUE ANALYSIS FOR THE MOS
 ----------------------------------------
 MO     1 (    1) HAS LZ(WEIGHT)= 0.00(100.0%) 
 MO     2 (    1) HAS LZ(WEIGHT)= 0.00(100.0%) 
 MO     3 (    2) HAS LZ(WEIGHT)= 0.00(100.0%) 
 MO     4 (    3) HAS LZ(WEIGHT)= 0.00(100.0%) 
 MO     5 (    4) HAS LZ(WEIGHT)= 0.00(100.0%) 
 MO     6 (    5) HAS LZ(WEIGHT)= 0.00(100.0%) 
 MO     7 (    6) HAS LZ(WEIGHT)=-1.00( 50.0%)  1.00( 50.0%) 
 MO     8 (    6) HAS LZ(WEIGHT)=-1.00( 50.0%)  1.00( 50.0%) 
 MO     9 (    7) HAS LZ(WEIGHT)=-1.00( 50.0%)  1.00( 50.0%) 
 MO    10 (    7) HAS LZ(WEIGHT)=-1.00( 50.0%)  1.00( 50.0%) 
 MO    11 (    8) HAS LZ(WEIGHT)= 0.00(100.0%) 
 MO    12 (    9) HAS LZ(WEIGHT)= 0.00(100.0%) 
 MO    13 (   10) HAS LZ(WEIGHT)= 0.00(100.0%) 
 MO    14 (   11) HAS LZ(WEIGHT)=-1.00( 50.0%)  1.00( 50.0%) 
 MO    15 (   11) HAS LZ(WEIGHT)=-1.00( 50.0%)  1.00( 50.0%) 
 MO    16 (   12) HAS LZ(WEIGHT)=-1.00( 50.0%)  1.00( 50.0%) 
 MO    17 (   12) HAS LZ(WEIGHT)=-1.00( 50.0%)  1.00( 50.0%) 
 MO    18 (   13) HAS LZ(WEIGHT)= 0.00(100.0%) 
 MO    19 (   14) HAS LZ(WEIGHT)= 0.00(100.0%) 
 MO    20 (   15) HAS LZ(WEIGHT)= 0.00(100.0%) 
 MO    21 (   16) HAS LZ(WEIGHT)= 0.00(100.0%) 
 MO    22 (   17) HAS LZ(WEIGHT)=-1.00( 50.0%)  1.00( 50.0%) 
 MO    23 (   17) HAS LZ(WEIGHT)=-1.00( 50.0%)  1.00( 50.0%) 
 MO    24 (   18) HAS LZ(WEIGHT)=-1.00( 50.0%)  1.00( 50.0%) 
 MO    25 (   18) HAS LZ(WEIGHT)=-1.00( 50.0%)  1.00( 50.0%) 
 MO    26 (   19) HAS LZ(WEIGHT)= 0.00(100.0%) 
 MO    27 (   20) HAS LZ(WEIGHT)=-1.00( 50.0%)  1.00( 50.0%) 
 MO    28 (   20) HAS LZ(WEIGHT)=-1.00( 50.0%)  1.00( 50.0%) 
 MO    29 (   21) HAS LZ(WEIGHT)= 0.00(100.0%) 
 MO    30 (   22) HAS LZ(WEIGHT)=-2.00( 50.0%)  2.00( 50.0%) 
 MO    31 (   22) HAS LZ(WEIGHT)=-2.00( 50.0%)  2.00( 50.0%) 
 MO    32 (   23) HAS LZ(WEIGHT)=-2.00( 50.0%)  2.00( 50.0%) 
 MO    33 (   23) HAS LZ(WEIGHT)=-2.00( 50.0%)  2.00( 50.0%) 
 MO    34 (   24) HAS LZ(WEIGHT)=-1.00( 50.0%)  1.00( 50.0%) 
 MO    35 (   24) HAS LZ(WEIGHT)=-1.00( 50.0%)  1.00( 50.0%) 
 MO    36 (   25) HAS LZ(WEIGHT)= 0.00(100.0%) 
 MO    37 (   26) HAS LZ(WEIGHT)= 0.00(100.0%) 
 MO    38 (   27) HAS LZ(WEIGHT)= 0.00(100.0%) 

  ----- BETA SET ----- 

          ------------
          EIGENVECTORS
          ------------

                      1          2          3          4          5
                 -104.8868  -104.8868   -10.6191   -10.6190    -8.0890
                     A          A          A          A          A   
    1  CL 1  S    0.704362   0.704363  -0.202764   0.202769  -0.001324
    2  CL 1  S    0.010346   0.010352   0.728759  -0.728881   0.004878
    3  CL 1  X    0.000000  -0.000000   0.000000   0.000000  -0.000000
    4  CL 1  Y    0.000000  -0.000000   0.000000   0.000000  -0.000000
    5  CL 1  Z   -0.000053  -0.000036  -0.004058   0.004004   0.702009
    6  CL 1  S   -0.012516  -0.012539   0.018328  -0.018171  -0.003036
    7  CL 1  X    0.000000  -0.000000   0.000000   0.000000  -0.000000
    8  CL 1  Y    0.000000  -0.000000   0.000000   0.000000  -0.000000
    9  CL 1  Z    0.000085  -0.000020  -0.000737   0.000852   0.016108
   10  CL 1  S    0.001229   0.000950  -0.003664   0.006370  -0.000209
   11  CL 1  X    0.000000  -0.000000   0.000000   0.000000  -0.000000
   12  CL 1  Y    0.000000  -0.000000   0.000000   0.000000  -0.000000
   13  CL 1  Z   -0.000147  -0.000006   0.000339  -0.001875  -0.004152
   14  CL 1 XX    0.004407   0.004436  -0.001268   0.001062   0.000830
   15  CL 1 YY    0.004407   0.004436  -0.001268   0.001062   0.000830
   16  CL 1 ZZ    0.004370   0.004495  -0.001206   0.000575   0.001043
   17  CL 1 XY    0.000000  -0.000000   0.000000   0.000000  -0.000000
   18  CL 1 XZ    0.000000  -0.000000   0.000000   0.000000  -0.000000
   19  CL 1 YZ    0.000000  -0.000000   0.000000   0.000000  -0.000000
   20  CL 2  S   -0.704362   0.704363  -0.202764  -0.202769  -0.001324
   21  CL 2  S   -0.010346   0.010352   0.728759   0.728881   0.004878
   22  CL 2  X    0.000000  -0.000000   0.000000   0.000000  -0.000000
   23  CL 2  Y    0.000000  -0.000000   0.000000   0.000000  -0.000000
   24  CL 2  Z   -0.000053   0.000036   0.004058   0.004004  -0.702009
   25  CL 2  S    0.012516  -0.012539   0.018328   0.018171  -0.003036
   26  CL 2  X    0.000000  -0.000000   0.000000   0.000000  -0.000000
   27  CL 2  Y    0.000000  -0.000000   0.000000   0.000000  -0.000000
   28  CL 2  Z    0.000085   0.000020   0.000737   0.000852  -0.016108
   29  CL 2  S   -0.001229   0.000950  -0.003664  -0.006370  -0.000209
   30  CL 2  X    0.000000  -0.000000   0.000000   0.000000  -0.000000
   31  CL 2  Y    0.000000  -0.000000   0.000000   0.000000  -0.000000
   32  CL 2  Z   -0.000147   0.000006  -0.000339  -0.001875   0.004152
   33  CL 2 XX   -0.004407   0.004436  -0.001268  -0.001062   0.000830
   34  CL 2 YY   -0.004407   0.004436  -0.001268  -0.001062   0.000830
   35  CL 2 ZZ   -0.004370   0.004495  -0.001206  -0.000575   0.001043
   36  CL 2 XY    0.000000  -0.000000   0.000000   0.000000  -0.000000
   37  CL 2 XZ    0.000000  -0.000000   0.000000   0.000000  -0.000000
   38  CL 2 YZ    0.000000  -0.000000   0.000000   0.000000  -0.000000

                      6          7          8          9         10
                   -8.0889    -8.0836    -8.0836    -8.0836    -8.0836
                     A          A          A          A          A   
    1  CL 1  S   -0.001291  -0.000000  -0.000000  -0.000000  -0.000000
    2  CL 1  S    0.004784  -0.000000  -0.000000  -0.000000  -0.000000
    3  CL 1  X    0.000000   0.092339   0.696543   0.582509  -0.392971
    4  CL 1  Y    0.000000  -0.696543   0.092339   0.392971   0.582509
    5  CL 1  Z    0.701877  -0.000000  -0.000000  -0.000000  -0.000000
    6  CL 1  S   -0.001912  -0.000000  -0.000000  -0.000000  -0.000000
    7  CL 1  X    0.000000   0.001860   0.014032   0.011617  -0.007837
    8  CL 1  Y    0.000000  -0.014032   0.001860   0.007837   0.011617
    9  CL 1  Z    0.016626  -0.000000  -0.000000  -0.000000  -0.000000
   10  CL 1  S    0.002285  -0.000000  -0.000000  -0.000000  -0.000000
   11  CL 1  X    0.000000  -0.000468  -0.003530  -0.002334   0.001574
   12  CL 1  Y    0.000000   0.003530  -0.000468  -0.001574  -0.002334
   13  CL 1  Z   -0.004951  -0.000000  -0.000000  -0.000000  -0.000000
   14  CL 1 XX    0.000791  -0.000000  -0.000000  -0.000000  -0.000000
   15  CL 1 YY    0.000791  -0.000000  -0.000000  -0.000000  -0.000000
   16  CL 1 ZZ   -0.000699  -0.000000  -0.000000  -0.000000  -0.000000
   17  CL 1 XY    0.000000  -0.000000  -0.000000  -0.000000  -0.000000
   18  CL 1 XZ    0.000000  -0.000039  -0.000295  -0.000215   0.000145
   19  CL 1 YZ    0.000000   0.000295  -0.000039  -0.000145  -0.000215
   20  CL 2  S    0.001291  -0.000000  -0.000000  -0.000000  -0.000000
   21  CL 2  S   -0.004784  -0.000000  -0.000000  -0.000000  -0.000000
   22  CL 2  X    0.000000  -0.092339  -0.696543   0.582509  -0.392971
   23  CL 2  Y    0.000000   0.696543  -0.092339   0.392971   0.582509
   24  CL 2  Z    0.701877  -0.000000  -0.000000  -0.000000  -0.000000
   25  CL 2  S    0.001912  -0.000000  -0.000000  -0.000000  -0.000000
   26  CL 2  X    0.000000  -0.001860  -0.014032   0.011617  -0.007837
   27  CL 2  Y    0.000000   0.014032  -0.001860   0.007837   0.011617
   28  CL 2  Z    0.016626  -0.000000  -0.000000  -0.000000  -0.000000
   29  CL 2  S   -0.002285  -0.000000  -0.000000  -0.000000  -0.000000
   30  CL 2  X    0.000000   0.000468   0.003530  -0.002334   0.001574
   31  CL 2  Y    0.000000  -0.003530   0.000468  -0.001574  -0.002334
   32  CL 2  Z   -0.004951  -0.000000  -0.000000  -0.000000  -0.000000
   33  CL 2 XX   -0.000791  -0.000000  -0.000000  -0.000000  -0.000000
   34  CL 2 YY   -0.000791  -0.000000  -0.000000  -0.000000  -0.000000
   35  CL 2 ZZ    0.000699  -0.000000  -0.000000  -0.000000  -0.000000
   36  CL 2 XY    0.000000  -0.000000  -0.000000  -0.000000  -0.000000
   37  CL 2 XZ    0.000000  -0.000039  -0.000295   0.000215  -0.000145
   38  CL 2 YZ    0.000000   0.000295  -0.000039   0.000145   0.000215

                     11         12         13         14         15
                   -1.2196    -1.0216    -0.5938    -0.5686    -0.5686
                     A          A          A          A          A   
    1  CL 1  S    0.055141  -0.059734  -0.016030  -0.000000   0.000000
    2  CL 1  S   -0.250212   0.272924   0.073853  -0.000000   0.000000
    3  CL 1  X   -0.000000  -0.000000   0.000000  -0.179731   0.075883
    4  CL 1  Y   -0.000000  -0.000000   0.000000  -0.075883  -0.179731
    5  CL 1  Z    0.045904   0.032146   0.197868  -0.000000   0.000000
    6  CL 1  S    0.488375  -0.553238  -0.173841  -0.000000   0.000000
    7  CL 1  X   -0.000000  -0.000000   0.000000   0.466510  -0.196963
    8  CL 1  Y   -0.000000  -0.000000   0.000000   0.196963   0.466510
    9  CL 1  Z   -0.109163  -0.078416  -0.506546  -0.000000   0.000000
   10  CL 1  S    0.186330  -0.286736  -0.128757  -0.000000   0.000000
   11  CL 1  X   -0.000000  -0.000000   0.000000   0.225013  -0.095002
   12  CL 1  Y   -0.000000  -0.000000   0.000000   0.095002   0.225013
   13  CL 1  Z   -0.016485   0.002656  -0.195518  -0.000000   0.000000
   14  CL 1 XX   -0.008178  -0.004008  -0.020130  -0.000000   0.000000
   15  CL 1 YY   -0.008178  -0.004008  -0.020130  -0.000000   0.000000
   16  CL 1 ZZ    0.038948   0.011974   0.075289  -0.000000   0.000000
   17  CL 1 XY   -0.000000  -0.000000   0.000000  -0.000000   0.000000
   18  CL 1 XZ   -0.000000  -0.000000   0.000000  -0.026377   0.011137
   19  CL 1 YZ   -0.000000  -0.000000   0.000000  -0.011137  -0.026377
   20  CL 2  S    0.055141   0.059734  -0.016030  -0.000000   0.000000
   21  CL 2  S   -0.250212  -0.272924   0.073853  -0.000000   0.000000
   22  CL 2  X   -0.000000  -0.000000   0.000000  -0.179731   0.075883
   23  CL 2  Y   -0.000000  -0.000000   0.000000  -0.075883  -0.179731
   24  CL 2  Z   -0.045904   0.032146  -0.197868  -0.000000   0.000000
   25  CL 2  S    0.488375   0.553238  -0.173841  -0.000000   0.000000
   26  CL 2  X   -0.000000  -0.000000   0.000000   0.466510  -0.196963
   27  CL 2  Y   -0.000000  -0.000000   0.000000   0.196963   0.466510
   28  CL 2  Z    0.109163  -0.078416   0.506546  -0.000000   0.000000
   29  CL 2  S    0.186330   0.286736  -0.128757  -0.000000   0.000000
   30  CL 2  X   -0.000000  -0.000000   0.000000   0.225013  -0.095002
   31  CL 2  Y   -0.000000  -0.000000   0.000000   0.095002   0.225013
   32  CL 2  Z    0.016485   0.002656   0.195518  -0.000000   0.000000
   33  CL 2 XX   -0.008178   0.004008  -0.020130  -0.000000   0.000000
   34  CL 2 YY   -0.008178   0.004008  -0.020130  -0.000000   0.000000
   35  CL 2 ZZ    0.038948  -0.011974   0.075289  -0.000000   0.000000
   36  CL 2 XY   -0.000000  -0.000000   0.000000  -0.000000   0.000000
   37  CL 2 XZ   -0.000000  -0.000000   0.000000   0.026377  -0.011137
   38  CL 2 YZ   -0.000000  -0.000000   0.000000   0.011137   0.026377

                     16         17         18         19         20
                   -0.4510    -0.4510     0.0250     0.4888     0.5607
                     A          A          A          A          A   
    1  CL 1  S   -0.000000  -0.000000  -0.019050  -0.049149  -0.027169
    2  CL 1  S   -0.000000  -0.000000   0.092180   0.069378   0.037318
    3  CL 1  X    0.191088  -0.085864   0.000000  -0.000000  -0.000000
    4  CL 1  Y   -0.085864  -0.191088   0.000000  -0.000000  -0.000000
    5  CL 1  Z   -0.000000  -0.000000  -0.192616   0.034504   0.194329
    6  CL 1  S   -0.000000  -0.000000  -0.184791  -0.949659  -0.540530
    7  CL 1  X   -0.504481   0.226684   0.000000  -0.000000  -0.000000
    8  CL 1  Y    0.226684   0.504481   0.000000  -0.000000  -0.000000
    9  CL 1  Z   -0.000000  -0.000000   0.498017  -0.111217  -0.715934
   10  CL 1  S   -0.000000  -0.000000  -0.454189   1.125249   0.440190
   11  CL 1  X   -0.291961   0.131190   0.000000  -0.000000  -0.000000
   12  CL 1  Y    0.131190   0.291961   0.000000  -0.000000  -0.000000
   13  CL 1  Z   -0.000000  -0.000000   0.736915   0.163907   0.835694
   14  CL 1 XX   -0.000000  -0.000000  -0.021617  -0.052032  -0.023276
   15  CL 1 YY   -0.000000  -0.000000  -0.021617  -0.052032  -0.023276
   16  CL 1 ZZ   -0.000000  -0.000000   0.050868  -0.178260  -0.090629
   17  CL 1 XY   -0.000000  -0.000000   0.000000  -0.000000  -0.000000
   18  CL 1 XZ   -0.010295   0.004626   0.000000  -0.000000  -0.000000
   19  CL 1 YZ    0.004626   0.010295   0.000000  -0.000000  -0.000000
   20  CL 2  S   -0.000000  -0.000000   0.019050  -0.049149   0.027169
   21  CL 2  S   -0.000000  -0.000000  -0.092180   0.069378  -0.037318
   22  CL 2  X   -0.191088   0.085864   0.000000  -0.000000  -0.000000
   23  CL 2  Y    0.085864   0.191088   0.000000  -0.000000  -0.000000
   24  CL 2  Z   -0.000000  -0.000000  -0.192616  -0.034504   0.194329
   25  CL 2  S   -0.000000  -0.000000   0.184791  -0.949659   0.540530
   26  CL 2  X    0.504481  -0.226684   0.000000  -0.000000  -0.000000
   27  CL 2  Y   -0.226684  -0.504481   0.000000  -0.000000  -0.000000
   28  CL 2  Z   -0.000000  -0.000000   0.498017   0.111217  -0.715934
   29  CL 2  S   -0.000000  -0.000000   0.454189   1.125249  -0.440190
   30  CL 2  X    0.291961  -0.131190   0.000000  -0.000000  -0.000000
   31  CL 2  Y   -0.131190  -0.291961   0.000000  -0.000000  -0.000000
   32  CL 2  Z   -0.000000  -0.000000   0.736915  -0.163907   0.835694
   33  CL 2 XX   -0.000000  -0.000000   0.021617  -0.052032   0.023276
   34  CL 2 YY   -0.000000  -0.000000   0.021617  -0.052032   0.023276
   35  CL 2 ZZ   -0.000000  -0.000000  -0.050868  -0.178260   0.090629
   36  CL 2 XY   -0.000000  -0.000000   0.000000  -0.000000  -0.000000
   37  CL 2 XZ   -0.010295   0.004626   0.000000  -0.000000  -0.000000
   38  CL 2 YZ    0.004626   0.010295   0.000000  -0.000000  -0.000000

                     21         22         23         24         25
                    0.5850     0.5909     0.5909     0.6419     0.6419
                     A          A          A          A          A   
    1  CL 1  S    0.001368   0.000000  -0.000000  -0.000000   0.000000
    2  CL 1  S    0.021250   0.000000  -0.000000  -0.000000   0.000000
    3  CL 1  X   -0.000000   0.002152  -0.213134   0.039959  -0.198280
    4  CL 1  Y   -0.000000  -0.213134  -0.002152   0.198280   0.039959
    5  CL 1  Z    0.154356   0.000000  -0.000000  -0.000000   0.000000
    6  CL 1  S    0.053030   0.000000  -0.000000  -0.000000   0.000000
    7  CL 1  X   -0.000000  -0.008325   0.824569  -0.160260   0.795231
    8  CL 1  Y   -0.000000   0.824569   0.008325  -0.795231  -0.160260
    9  CL 1  Z   -0.687856   0.000000  -0.000000  -0.000000   0.000000
   10  CL 1  S    0.039267   0.000000  -0.000000  -0.000000   0.000000
   11  CL 1  X   -0.000000   0.007665  -0.759167   0.213179  -1.057824
   12  CL 1  Y   -0.000000  -0.759167  -0.007665   1.057824   0.213179
   13  CL 1  Z    0.802618   0.000000  -0.000000  -0.000000   0.000000
   14  CL 1 XX   -0.112330   0.000000  -0.000000  -0.000000   0.000000
   15  CL 1 YY   -0.112330   0.000000  -0.000000  -0.000000   0.000000
   16  CL 1 ZZ    0.360677   0.000000  -0.000000  -0.000000   0.000000
   17  CL 1 XY   -0.000000   0.000000  -0.000000  -0.000000   0.000000
   18  CL 1 XZ   -0.000000  -0.000278   0.027578   0.017744  -0.088049
   19  CL 1 YZ   -0.000000   0.027578   0.000278   0.088049   0.017744
   20  CL 2  S    0.001368   0.000000  -0.000000  -0.000000   0.000000
   21  CL 2  S    0.021250   0.000000  -0.000000  -0.000000   0.000000
   22  CL 2  X   -0.000000   0.002152  -0.213134  -0.039959   0.198280
   23  CL 2  Y   -0.000000  -0.213134  -0.002152  -0.198280  -0.039959
   24  CL 2  Z   -0.154356   0.000000  -0.000000  -0.000000   0.000000
   25  CL 2  S    0.053030   0.000000  -0.000000  -0.000000   0.000000
   26  CL 2  X   -0.000000  -0.008325   0.824569   0.160260  -0.795231
   27  CL 2  Y   -0.000000   0.824569   0.008325   0.795231   0.160260
   28  CL 2  Z    0.687856   0.000000  -0.000000  -0.000000   0.000000
   29  CL 2  S    0.039267   0.000000  -0.000000  -0.000000   0.000000
   30  CL 2  X   -0.000000   0.007665  -0.759167  -0.213179   1.057824
   31  CL 2  Y   -0.000000  -0.759167  -0.007665  -1.057824  -0.213179
   32  CL 2  Z   -0.802618   0.000000  -0.000000  -0.000000   0.000000
   33  CL 2 XX   -0.112330   0.000000  -0.000000  -0.000000   0.000000
   34  CL 2 YY   -0.112330   0.000000  -0.000000  -0.000000   0.000000
   35  CL 2 ZZ    0.360677   0.000000  -0.000000  -0.000000   0.000000
   36  CL 2 XY   -0.000000   0.000000  -0.000000  -0.000000   0.000000
   37  CL 2 XZ   -0.000000   0.000278  -0.027578   0.017744  -0.088049
   38  CL 2 YZ   -0.000000  -0.027578  -0.000278   0.088049   0.017744

                     26         27         28         29         30
                    0.7111     0.9709     0.9709     1.0397     1.0884
                     A          A          A          A          A   
    1  CL 1  S    0.041906   0.000000   0.000000  -0.016550  -0.000000
    2  CL 1  S    0.009044   0.000000   0.000000   0.036085  -0.000000
    3  CL 1  X   -0.000000   0.001855   0.000268  -0.000000  -0.000000
    4  CL 1  Y   -0.000000   0.000268  -0.001855  -0.000000  -0.000000
    5  CL 1  Z    0.119615   0.000000   0.000000  -0.136412  -0.000000
    6  CL 1  S    1.019806   0.000000   0.000000  -0.339940  -0.000000
    7  CL 1  X   -0.000000  -0.027631  -0.003991  -0.000000  -0.000000
    8  CL 1  Y   -0.000000  -0.003991   0.027631  -0.000000  -0.000000
    9  CL 1  Z   -0.475727   0.000000   0.000000   0.539349  -0.000000
   10  CL 1  S   -2.532509   0.000000   0.000000   0.136141  -0.000000
   11  CL 1  X   -0.000000   0.091888   0.013273  -0.000000  -0.000000
   12  CL 1  Y   -0.000000   0.013273  -0.091888  -0.000000  -0.000000
   13  CL 1  Z    1.615800   0.000000   0.000000  -0.440416  -0.000000
   14  CL 1 XX    0.031333   0.000000   0.000000  -0.283078   0.611046
   15  CL 1 YY    0.031333   0.000000   0.000000  -0.283078  -0.611046
   16  CL 1 ZZ    0.205274   0.000000   0.000000   0.597768  -0.000000
   17  CL 1 XY   -0.000000   0.000000   0.000000  -0.000000  -0.000000
   18  CL 1 XZ   -0.000000   0.686032   0.099094  -0.000000  -0.000000
   19  CL 1 YZ   -0.000000   0.099094  -0.686032  -0.000000  -0.000000
   20  CL 2  S   -0.041906   0.000000   0.000000  -0.016550  -0.000000
   21  CL 2  S   -0.009044   0.000000   0.000000   0.036085  -0.000000
   22  CL 2  X   -0.000000   0.001855   0.000268  -0.000000  -0.000000
   23  CL 2  Y   -0.000000   0.000268  -0.001855  -0.000000  -0.000000
   24  CL 2  Z    0.119615   0.000000   0.000000   0.136412  -0.000000
   25  CL 2  S   -1.019806   0.000000   0.000000  -0.339940  -0.000000
   26  CL 2  X   -0.000000  -0.027631  -0.003991  -0.000000  -0.000000
   27  CL 2  Y   -0.000000  -0.003991   0.027631  -0.000000  -0.000000
   28  CL 2  Z   -0.475727   0.000000   0.000000  -0.539349  -0.000000
   29  CL 2  S    2.532509   0.000000   0.000000   0.136141  -0.000000
   30  CL 2  X   -0.000000   0.091888   0.013273  -0.000000  -0.000000
   31  CL 2  Y   -0.000000   0.013273  -0.091888  -0.000000  -0.000000
   32  CL 2  Z    1.615800   0.000000   0.000000   0.440416  -0.000000
   33  CL 2 XX   -0.031333   0.000000   0.000000  -0.283078   0.611046
   34  CL 2 YY   -0.031333   0.000000   0.000000  -0.283078  -0.611046
   35  CL 2 ZZ   -0.205274   0.000000   0.000000   0.597768  -0.000000
   36  CL 2 XY   -0.000000   0.000000   0.000000  -0.000000  -0.000000
   37  CL 2 XZ   -0.000000  -0.686032  -0.099094  -0.000000  -0.000000
   38  CL 2 YZ   -0.000000  -0.099094   0.686032  -0.000000  -0.000000

                     31         32         33         34         35
                    1.0884     1.1190     1.1190     1.2452     1.2452
                     A          A          A          A          A   
    1  CL 1  S    0.000000  -0.000000   0.000000   0.000000  -0.000000
    2  CL 1  S    0.000000  -0.000000   0.000000   0.000000  -0.000000
    3  CL 1  X    0.000000  -0.000000   0.000000  -0.022255   0.016664
    4  CL 1  Y    0.000000  -0.000000   0.000000  -0.016664  -0.022255
    5  CL 1  Z    0.000000  -0.000000   0.000000   0.000000  -0.000000
    6  CL 1  S    0.000000  -0.000000   0.000000   0.000000  -0.000000
    7  CL 1  X    0.000000  -0.000000   0.000000   0.108195  -0.081014
    8  CL 1  Y    0.000000  -0.000000   0.000000   0.081014   0.108195
    9  CL 1  Z    0.000000  -0.000000   0.000000   0.000000  -0.000000
   10  CL 1  S    0.000000  -0.000000   0.000000   0.000000  -0.000000
   11  CL 1  X    0.000000  -0.000000   0.000000  -0.215041   0.161018
   12  CL 1  Y    0.000000  -0.000000   0.000000  -0.161018  -0.215041
   13  CL 1  Z    0.000000  -0.000000   0.000000   0.000000  -0.000000
   14  CL 1 XX    0.000000   0.613707  -0.000000   0.000000  -0.000000
   15  CL 1 YY   -0.000000  -0.613707   0.000000   0.000000  -0.000000
   16  CL 1 ZZ    0.000000  -0.000000   0.000000   0.000000  -0.000000
   17  CL 1 XY    0.705575  -0.000000  -0.708648   0.000000  -0.000000
   18  CL 1 XZ    0.000000  -0.000000   0.000000   0.578037  -0.432822
   19  CL 1 YZ    0.000000  -0.000000   0.000000   0.432822   0.578037
   20  CL 2  S    0.000000  -0.000000   0.000000   0.000000  -0.000000
   21  CL 2  S    0.000000  -0.000000   0.000000   0.000000  -0.000000
   22  CL 2  X    0.000000  -0.000000   0.000000   0.022255  -0.016664
   23  CL 2  Y    0.000000  -0.000000   0.000000   0.016664   0.022255
   24  CL 2  Z    0.000000  -0.000000   0.000000   0.000000  -0.000000
   25  CL 2  S    0.000000  -0.000000   0.000000   0.000000  -0.000000
   26  CL 2  X    0.000000  -0.000000   0.000000  -0.108195   0.081014
   27  CL 2  Y    0.000000  -0.000000   0.000000  -0.081014  -0.108195
   28  CL 2  Z    0.000000  -0.000000   0.000000   0.000000  -0.000000
   29  CL 2  S    0.000000  -0.000000   0.000000   0.000000  -0.000000
   30  CL 2  X    0.000000  -0.000000   0.000000   0.215041  -0.161018
   31  CL 2  Y    0.000000  -0.000000   0.000000   0.161018   0.215041
   32  CL 2  Z    0.000000  -0.000000   0.000000   0.000000  -0.000000
   33  CL 2 XX    0.000000  -0.613707   0.000000   0.000000  -0.000000
   34  CL 2 YY   -0.000000   0.613707  -0.000000   0.000000  -0.000000
   35  CL 2 ZZ    0.000000  -0.000000   0.000000   0.000000  -0.000000
   36  CL 2 XY    0.705575   0.000000   0.708648   0.000000  -0.000000
   37  CL 2 XZ    0.000000  -0.000000   0.000000   0.578037  -0.432822
   38  CL 2 YZ    0.000000  -0.000000   0.000000   0.432822   0.578037

                     36         37         38
                    1.5818     4.5476     4.6646
                     A          A          A   
    1  CL 1  S    0.008767   0.121033  -0.119268
    2  CL 1  S    0.062155  -0.568507   0.573641
    3  CL 1  X    0.000000  -0.000000  -0.000000
    4  CL 1  Y    0.000000  -0.000000  -0.000000
    5  CL 1  Z   -0.022903   0.000364   0.005796
    6  CL 1  S    0.365160   3.914426  -3.869425
    7  CL 1  X    0.000000  -0.000000  -0.000000
    8  CL 1  Y    0.000000  -0.000000  -0.000000
    9  CL 1  Z    0.011110   0.025023  -0.011867
   10  CL 1  S   -1.389110   0.035347  -0.292415
   11  CL 1  X    0.000000  -0.000000  -0.000000
   12  CL 1  Y    0.000000  -0.000000  -0.000000
   13  CL 1  Z    0.921936  -0.020517   0.176990
   14  CL 1 XX    0.459459  -1.749558   1.740694
   15  CL 1 YY    0.459459  -1.749558   1.740694
   16  CL 1 ZZ   -0.735388  -1.703116   1.726503
   17  CL 1 XY    0.000000  -0.000000  -0.000000
   18  CL 1 XZ    0.000000  -0.000000  -0.000000
   19  CL 1 YZ    0.000000  -0.000000  -0.000000
   20  CL 2  S   -0.008767   0.121033   0.119268
   21  CL 2  S   -0.062155  -0.568507  -0.573641
   22  CL 2  X    0.000000  -0.000000  -0.000000
   23  CL 2  Y    0.000000  -0.000000  -0.000000
   24  CL 2  Z   -0.022903  -0.000364   0.005796
   25  CL 2  S   -0.365160   3.914426   3.869425
   26  CL 2  X    0.000000  -0.000000  -0.000000
   27  CL 2  Y    0.000000  -0.000000  -0.000000
   28  CL 2  Z    0.011110  -0.025023  -0.011867
   29  CL 2  S    1.389110   0.035347   0.292415
   30  CL 2  X    0.000000  -0.000000  -0.000000
   31  CL 2  Y    0.000000  -0.000000  -0.000000
   32  CL 2  Z    0.921936   0.020517   0.176990
   33  CL 2 XX   -0.459459  -1.749558  -1.740694
   34  CL 2 YY   -0.459459  -1.749558  -1.740694
   35  CL 2 ZZ    0.735388  -1.703116  -1.726503
   36  CL 2 XY    0.000000  -0.000000  -0.000000
   37  CL 2 XZ    0.000000  -0.000000  -0.000000
   38  CL 2 YZ    0.000000  -0.000000  -0.000000
 ...... END OF UHF CALCULATION ......
 STEP CPU TIME =     0.01 TOTAL CPU TIME =          0.0 (      0.0 MIN)
 TOTAL WALL CLOCK TIME=          0.0 SECONDS, CPU UTILIZATION IS    97.64%

     ----------------------------------------------------------------
     PROPERTY VALUES FOR THE UHF   SELF-CONSISTENT FIELD WAVEFUNCTION
     ----------------------------------------------------------------

          -----------------
          ENERGY COMPONENTS
          -----------------

         WAVEFUNCTION NORMALIZATION =       1.0000000000

                ONE ELECTRON ENERGY =   -1420.8034717693
                TWO ELECTRON ENERGY =     426.0036468842
           NUCLEAR REPULSION ENERGY =      75.8872709727
                                      ------------------
                       TOTAL ENERGY =    -918.9125539124

 ELECTRON-ELECTRON POTENTIAL ENERGY =     426.0036468842
  NUCLEUS-ELECTRON POTENTIAL ENERGY =   -2339.3989503208
   NUCLEUS-NUCLEUS POTENTIAL ENERGY =      75.8872709727
                                      ------------------
             TOTAL POTENTIAL ENERGY =   -1837.5080324639
               TOTAL KINETIC ENERGY =     918.5954785515
                 VIRIAL RATIO (V/T) =       2.0003451741

  ...... PI ENERGY ANALYSIS ......

 ENERGY ANALYSIS:
            FOCK ENERGY=   -568.7961793425
          BARE H ENERGY=  -1420.8034717693
     ELECTRONIC ENERGY =   -994.7998255559
         KINETIC ENERGY=    918.5954785515
          N-N REPULSION=     75.8872709727
           TOTAL ENERGY=   -918.9125545832
        SIGMA PART(1+2)=   -749.8410204934
               (K,V1,2)=    734.7295493687  -1734.3624061149    249.7918362528
           PI PART(1+2)=   -244.9588050625
               (K,V1,2)=    183.8659291828   -605.0365442059    176.2118099606
  SIGMA SKELETON, ERROR=   -673.9537495207     -0.0000000000
             MIXED PART= 0.00000E+00 0.00000E+00 0.00000E+00 0.00000E+00
 ...... END OF PI ENERGY ANALYSIS ......

          ---------------------------------------
          MULLIKEN AND LOWDIN POPULATION ANALYSES
          ---------------------------------------

     ATOMIC MULLIKEN POPULATION IN EACH MOLECULAR ORBITAL
        ALPHA ORBITALS

                      1          2          3          4          5

                  1.000000   1.000000   1.000000   1.000000   1.000000

    1             0.500000   0.500000   0.500000   0.500000   0.500000
    2             0.500000   0.500000   0.500000   0.500000   0.500000

                      6          7          8          9         10

                  1.000000   1.000000   1.000000   1.000000   1.000000

    1             0.500000   0.500000   0.500000   0.500000   0.500000
    2             0.500000   0.500000   0.500000   0.500000   0.500000

                     11         12         13         14         15

                  1.000000   1.000000   1.000000   1.000000   1.000000

    1             0.500000   0.500000   0.500000   0.500000   0.500000
    2             0.500000   0.500000   0.500000   0.500000   0.500000

                     16         17

                  1.000000   1.000000

    1             0.500000   0.500000
    2             0.500000   0.500000

     ATOMIC MULLIKEN POPULATION IN EACH MOLECULAR ORBITAL
         BETA ORBITALS

                      1          2          3          4          5

                  1.000000   1.000000   1.000000   1.000000   1.000000

    1             0.500000   0.500000   0.500000   0.500000   0.500000
    2             0.500000   0.500000   0.500000   0.500000   0.500000

                      6          7          8          9         10

                  1.000000   1.000000   1.000000   1.000000   1.000000

    1             0.500000   0.500000   0.500000   0.500000   0.500000
    2             0.500000   0.500000   0.500000   0.500000   0.500000

                     11         12         13         14         15

                  1.000000   1.000000   1.000000   1.000000   1.000000

    1             0.500000   0.500000   0.500000   0.500000   0.500000
    2             0.500000   0.500000   0.500000   0.500000   0.500000

                     16         17

                  1.000000   1.000000

    1             0.500000   0.500000
    2             0.500000   0.500000

     ATOMIC SPIN POPULATION (ALPHA MINUS BETA)
       ATOM         MULL.POP.                    LOW.POP.
    1 CL            0.000000                     0.000000
    2 CL            0.000000                     0.000000


          ********* ALL ELECTRONS ********

               ----- POPULATIONS IN EACH AO -----
                             MULLIKEN      LOWDIN
              1  CL 1  S      1.99890     1.99850
              2  CL 1  S      1.99859     1.98236
              3  CL 1  X      1.99535     1.97811
              4  CL 1  Y      1.99535     1.97811
              5  CL 1  Z      1.99014     1.95499
              6  CL 1  S      1.39279     0.66048
              7  CL 1  X      1.35875     1.27810
              8  CL 1  Y      1.35875     1.27810
              9  CL 1  Z      0.76670     0.70131
             10  CL 1  S      0.57665     0.48608
             11  CL 1  X      0.64076     0.73787
             12  CL 1  Y      0.64076     0.73787
             13  CL 1  Z      0.24282     0.41050
             14  CL 1 XX      0.00158     0.26717
             15  CL 1 YY      0.00158     0.26717
             16  CL 1 ZZ      0.03024     0.27144
             17  CL 1 XY      0.00000     0.00000
             18  CL 1 XZ      0.00515     0.00592
             19  CL 1 YZ      0.00515     0.00592
             20  CL 2  S      1.99890     1.99850
             21  CL 2  S      1.99859     1.98236
             22  CL 2  X      1.99535     1.97811
             23  CL 2  Y      1.99535     1.97811
             24  CL 2  Z      1.99014     1.95499
             25  CL 2  S      1.39279     0.66048
             26  CL 2  X      1.35875     1.27810
             27  CL 2  Y      1.35875     1.27810
             28  CL 2  Z      0.76670     0.70131
             29  CL 2  S      0.57665     0.48608
             30  CL 2  X      0.64076     0.73787
             31  CL 2  Y      0.64076     0.73787
             32  CL 2  Z      0.24282     0.41050
             33  CL 2 XX      0.00158     0.26717
             34  CL 2 YY      0.00158     0.26717
             35  CL 2 ZZ      0.03024     0.27144
             36  CL 2 XY      0.00000     0.00000
             37  CL 2 XZ      0.00515     0.00592
             38  CL 2 YZ      0.00515     0.00592

          ----- MULLIKEN ATOMIC OVERLAP POPULATIONS -----
          (OFF-DIAGONAL ELEMENTS NEED TO BE MULTIPLIED BY 2)

             1           2

    1   16.9979817
    2    0.0020183  16.9979817

          TOTAL MULLIKEN AND LOWDIN ATOMIC POPULATIONS
       ATOM         MULL.POP.    CHARGE          LOW.POP.     CHARGE
    1 CL           17.000000   -0.000000        17.000000   -0.000000
    2 CL           17.000000    0.000000        17.000000   -0.000000

          -------------------------------
          BOND ORDER AND VALENCE ANALYSIS     BOND ORDER THRESHOLD=0.050
          -------------------------------

                   BOND                       BOND                       BOND
  ATOM PAIR DIST  ORDER      ATOM PAIR DIST  ORDER      ATOM PAIR DIST  ORDER
    1   2  2.015  0.892

                       TOTAL       BONDED        FREE
      ATOM            VALENCE     VALENCE     VALENCE
    1 CL                0.892       0.892      -0.000
    2 CL                0.892       0.892      -0.000

          -----------------------------------------
          ATOMIC SPIN DENSITY AT THE NUCLEUS (A.U.)
          -----------------------------------------
                            SPIN DENS    ALPHA DENS     BETA DENS
    1  CL          17.0     0.0000000    1511.65827    1511.65827
    2  CL          17.0     0.0000000    1511.65827    1511.65827

          ---------------------
          ELECTROSTATIC MOMENTS
          ---------------------

 POINT   1           X           Y           Z (BOHR)    CHARGE
                 0.000000    0.000000    0.000000       -0.00 (A.U.)
         DX          DY          DZ         /D/  (DEBYE)
     0.000000    0.000000    0.000000    0.000000
 ...... END OF PROPERTY EVALUATION ......
 STEP CPU TIME =     0.00 TOTAL CPU TIME =          0.0 (      0.0 MIN)
 TOTAL WALL CLOCK TIME=          0.0 SECONDS, CPU UTILIZATION IS    97.77%

 BEGINNING ONE ELECTRON GRADIENT...
 ..... END OF 1-ELECTRON GRADIENT ......
 STEP CPU TIME =     0.00 TOTAL CPU TIME =          0.0 (      0.0 MIN)
 TOTAL WALL CLOCK TIME=          0.0 SECONDS, CPU UTILIZATION IS    97.85%

          ----------------------
          GRADIENT OF THE ENERGY
          ----------------------

 THE MINIMUM MEMORY REQUIRED FOR THIS RUN IS      79013 WORDS.
 USING     993563 WORDS FOR 2E- DERIVATIVE INTEGRAL CONTRIBUTIONS.
 THE COARSE/FINE SCHWARZ SCREENINGS SKIPPED            0/           0 BLOCKS.
 THE NUMBER OF GRADIENT INTEGRAL BLOCKS COMPUTED WAS      1270
 ...... END OF 2-ELECTRON GRADIENT ......
 STEP CPU TIME =     0.05 TOTAL CPU TIME =          0.1 (      0.0 MIN)
 TOTAL WALL CLOCK TIME=          0.1 SECONDS, CPU UTILIZATION IS    99.20%

          NSERCH=  0     ENERGY=    -918.9125539

                                 -----------------------
                                 GRADIENT (HARTREE/BOHR)
                                 -----------------------
        ATOM     ZNUC       DE/DX         DE/DY         DE/DZ
 --------------------------------------------------------------
    1  CL          17.0     0.0000000     0.0000000     0.0107138
    2  CL          17.0     0.0000000     0.0000000    -0.0107138

          MAXIMUM GRADIENT = 0.0107138    RMS GRADIENT = 0.0061856

 NSERCH:   0  E=     -918.9125539124  GRAD. MAX=  0.0107138  R.M.S.=  0.0061856

          FORCE CONSTANT MATRIX NOT UPDATED --- TAKING FIRST STEP
          MIN SEARCH, CORRECT HESSIAN, TRYING PURE NR STEP
               NR STEP HAS LENGTH         =   0.022530
          RADIUS OF STEP TAKEN=   0.02253  CURRENT TRUST RADIUS=   0.30000

 BEGINNING GEOMETRY SEARCH POINT NSERCH=   1 ...

 COORDINATES OF ALL ATOMS ARE (ANGS)
   ATOM   CHARGE       X              Y              Z
 ------------------------------------------------------------
 CL         17.0   0.0000000000   0.0000000000   0.9991971076
 CL         17.0   0.0000000000   0.0000000000  -0.9991971076

          INTERNUCLEAR DISTANCES (ANGS.)
          ------------------------------

[...]
   35  CL 2 ZZ    0.000796   0.000000   0.000000   0.000000   0.000000
   36  CL 2 XY    0.000000   0.000000   0.000000   0.000000   0.000000
   37  CL 2 XZ    0.000000  -0.000320   0.000018  -0.000256   0.000040
   38  CL 2 YZ    0.000000   0.000018   0.000320   0.000040   0.000256

                     11         12         13         14         15
                   -1.2272    -1.0185    -0.5985    -0.5718    -0.5718
                     A          A          A          A          A   
    1  CL 1  S   -0.055010  -0.059678  -0.016379   0.000000   0.000000
    2  CL 1  S    0.249448   0.272738   0.075928   0.000000   0.000000
    3  CL 1  X    0.000000   0.000000   0.000000  -0.051683  -0.188128
    4  CL 1  Y    0.000000   0.000000   0.000000   0.188128  -0.051683
    5  CL 1  Z   -0.048250   0.033403   0.198455   0.000000   0.000000
    6  CL 1  S   -0.486365  -0.552531  -0.176152   0.000000   0.000000
    7  CL 1  X    0.000000   0.000000   0.000000   0.134102   0.488134
    8  CL 1  Y    0.000000   0.000000   0.000000  -0.488134   0.134102
    9  CL 1  Z    0.114715  -0.081187  -0.508482   0.000000   0.000000
   10  CL 1  S   -0.182952  -0.289912  -0.135198   0.000000   0.000000
   11  CL 1  X    0.000000   0.000000   0.000000   0.064218   0.233755
   12  CL 1  Y    0.000000   0.000000   0.000000  -0.233755   0.064218
   13  CL 1  Z    0.015926   0.003181  -0.191138   0.000000   0.000000
   14  CL 1 XX    0.008465  -0.004333  -0.020365   0.000000   0.000000
   15  CL 1 YY    0.008465  -0.004333  -0.020365   0.000000   0.000000
   16  CL 1 ZZ   -0.040896   0.012259   0.077061   0.000000   0.000000
   17  CL 1 XY    0.000000   0.000000   0.000000   0.000000   0.000000
   18  CL 1 XZ    0.000000   0.000000   0.000000  -0.008013  -0.029166
   19  CL 1 YZ    0.000000   0.000000   0.000000   0.029166  -0.008013
   20  CL 2  S   -0.055010   0.059678  -0.016379   0.000000   0.000000
   21  CL 2  S    0.249448  -0.272738   0.075928   0.000000   0.000000
   22  CL 2  X    0.000000   0.000000   0.000000  -0.051683  -0.188128
   23  CL 2  Y    0.000000   0.000000   0.000000   0.188128  -0.051683
   24  CL 2  Z    0.048250   0.033403  -0.198455   0.000000   0.000000
   25  CL 2  S   -0.486365   0.552531  -0.176152   0.000000   0.000000
   26  CL 2  X    0.000000   0.000000   0.000000   0.134102   0.488134
   27  CL 2  Y    0.000000   0.000000   0.000000  -0.488134   0.134102
   28  CL 2  Z   -0.114715  -0.081187   0.508482   0.000000   0.000000
   29  CL 2  S   -0.182952   0.289912  -0.135198   0.000000   0.000000
   30  CL 2  X    0.000000   0.000000   0.000000   0.064218   0.233755
   31  CL 2  Y    0.000000   0.000000   0.000000  -0.233755   0.064218
   32  CL 2  Z   -0.015926   0.003181   0.191138   0.000000   0.000000
   33  CL 2 XX    0.008465   0.004333  -0.020365   0.000000   0.000000
   34  CL 2 YY    0.008465   0.004333  -0.020365   0.000000   0.000000
   35  CL 2 ZZ   -0.040896  -0.012259   0.077061   0.000000   0.000000
   36  CL 2 XY    0.000000   0.000000   0.000000   0.000000   0.000000
   37  CL 2 XZ    0.000000   0.000000   0.000000   0.008013   0.029166
   38  CL 2 YZ    0.000000   0.000000   0.000000  -0.029166   0.008013

                     16         17         18         19         20
                   -0.4483    -0.4483     0.0344     0.4876     0.5630
                     A          A          A          A          A   
    1  CL 1  S    0.000000   0.000000   0.019532  -0.048904  -0.026878
    2  CL 1  S    0.000000   0.000000  -0.094829   0.066786   0.035871
    3  CL 1  X    0.091208  -0.188730   0.000000   0.000000   0.000000
    4  CL 1  Y   -0.188730  -0.091208   0.000000   0.000000   0.000000
    5  CL 1  Z    0.000000   0.000000   0.190932   0.028466   0.195876
    6  CL 1  S    0.000000   0.000000   0.188771  -0.948053  -0.537399
    7  CL 1  X   -0.240866   0.498409   0.000000   0.000000   0.000000
    8  CL 1  Y    0.498409   0.240866   0.000000   0.000000   0.000000
    9  CL 1  Z    0.000000   0.000000  -0.494511  -0.080090  -0.720760
   10  CL 1  S    0.000000   0.000000   0.490143   1.118950   0.434938
   11  CL 1  X   -0.140555   0.290842   0.000000   0.000000   0.000000
   12  CL 1  Y    0.290842   0.140555   0.000000   0.000000   0.000000
   13  CL 1  Z    0.000000   0.000000  -0.763847   0.119526   0.833134
   14  CL 1 XX    0.000000   0.000000   0.022777  -0.045430  -0.021415
   15  CL 1 YY    0.000000   0.000000   0.022777  -0.045430  -0.021415
   16  CL 1 ZZ    0.000000   0.000000  -0.052917  -0.200918  -0.094582
   17  CL 1 XY    0.000000   0.000000   0.000000   0.000000   0.000000
   18  CL 1 XZ   -0.005184   0.010727   0.000000   0.000000   0.000000
   19  CL 1 YZ    0.010727   0.005184   0.000000   0.000000   0.000000
   20  CL 2  S    0.000000   0.000000  -0.019532  -0.048904   0.026878
   21  CL 2  S    0.000000   0.000000   0.094829   0.066786  -0.035871
   22  CL 2  X   -0.091208   0.188730   0.000000   0.000000   0.000000
   23  CL 2  Y    0.188730   0.091208   0.000000   0.000000   0.000000
   24  CL 2  Z    0.000000   0.000000   0.190932  -0.028466   0.195876
   25  CL 2  S    0.000000   0.000000  -0.188771  -0.948053   0.537399
   26  CL 2  X    0.240866  -0.498409   0.000000   0.000000   0.000000
   27  CL 2  Y   -0.498409  -0.240866   0.000000   0.000000   0.000000
   28  CL 2  Z    0.000000   0.000000  -0.494511   0.080090  -0.720760
   29  CL 2  S    0.000000   0.000000  -0.490143   1.118950  -0.434938
   30  CL 2  X    0.140555  -0.290842   0.000000   0.000000   0.000000
   31  CL 2  Y   -0.290842  -0.140555   0.000000   0.000000   0.000000
   32  CL 2  Z    0.000000   0.000000  -0.763847  -0.119526   0.833134
   33  CL 2 XX    0.000000   0.000000  -0.022777  -0.045430   0.021415
   34  CL 2 YY    0.000000   0.000000  -0.022777  -0.045430   0.021415
   35  CL 2 ZZ    0.000000   0.000000   0.052917  -0.200918   0.094582
   36  CL 2 XY    0.000000   0.000000   0.000000   0.000000   0.000000
   37  CL 2 XZ   -0.005184   0.010727   0.000000   0.000000   0.000000
   38  CL 2 YZ    0.010727   0.005184   0.000000   0.000000   0.000000

                     21         22         23         24         25
                    0.5718     0.5918     0.5918     0.6421     0.6421
                     A          A          A          A          A   
    1  CL 1  S    0.001797   0.000000   0.000000   0.000000   0.000000
    2  CL 1  S   -0.027631   0.000000   0.000000   0.000000   0.000000
    3  CL 1  X    0.000000  -0.212794  -0.010710  -0.197416   0.045034
    4  CL 1  Y    0.000000   0.010710  -0.212794   0.045034   0.197416
    5  CL 1  Z   -0.152167   0.000000   0.000000   0.000000   0.000000
    6  CL 1  S    0.004174   0.000000   0.000000   0.000000   0.000000
    7  CL 1  X    0.000000   0.824121   0.041480   0.791373  -0.180527
    8  CL 1  Y    0.000000  -0.041480   0.824121  -0.180527  -0.791373
    9  CL 1  Z    0.680776   0.000000   0.000000   0.000000   0.000000
   10  CL 1  S   -0.104746   0.000000   0.000000   0.000000   0.000000
   11  CL 1  X    0.000000  -0.757930  -0.038148  -1.058437   0.241449
   12  CL 1  Y    0.000000   0.038148  -0.757930   0.241449   1.058437
   13  CL 1  Z   -0.812238   0.000000   0.000000   0.000000   0.000000
   14  CL 1 XX    0.113456   0.000000   0.000000   0.000000   0.000000
   15  CL 1 YY    0.113456   0.000000   0.000000   0.000000   0.000000
   16  CL 1 ZZ   -0.349619   0.000000   0.000000   0.000000   0.000000
   17  CL 1 XY    0.000000   0.000000   0.000000   0.000000   0.000000
   18  CL 1 XZ    0.000000   0.021838   0.001099  -0.085790   0.019570
   19  CL 1 YZ    0.000000  -0.001099   0.021838   0.019570   0.085790
   20  CL 2  S    0.001797   0.000000   0.000000   0.000000   0.000000
   21  CL 2  S   -0.027631   0.000000   0.000000   0.000000   0.000000
   22  CL 2  X    0.000000  -0.212794  -0.010710   0.197416  -0.045034
   23  CL 2  Y    0.000000   0.010710  -0.212794  -0.045034  -0.197416
   24  CL 2  Z    0.152167   0.000000   0.000000   0.000000   0.000000
   25  CL 2  S    0.004174   0.000000   0.000000   0.000000   0.000000
   26  CL 2  X    0.000000   0.824121   0.041480  -0.791373   0.180527
   27  CL 2  Y    0.000000  -0.041480   0.824121   0.180527   0.791373
   28  CL 2  Z   -0.680776   0.000000   0.000000   0.000000   0.000000
   29  CL 2  S   -0.104746   0.000000   0.000000   0.000000   0.000000
   30  CL 2  X    0.000000  -0.757930  -0.038148   1.058437  -0.241449
   31  CL 2  Y    0.000000   0.038148  -0.757930  -0.241449  -1.058437
   32  CL 2  Z    0.812238   0.000000   0.000000   0.000000   0.000000
   33  CL 2 XX    0.113456   0.000000   0.000000   0.000000   0.000000
   34  CL 2 YY    0.113456   0.000000   0.000000   0.000000   0.000000
   35  CL 2 ZZ   -0.349619   0.000000   0.000000   0.000000   0.000000
   36  CL 2 XY    0.000000   0.000000   0.000000   0.000000   0.000000
   37  CL 2 XZ    0.000000  -0.021838  -0.001099  -0.085790   0.019570
   38  CL 2 YZ    0.000000   0.001099  -0.021838   0.019570   0.085790

                     26         27
                    0.7153     0.9614
                     A          A   
    1  CL 1  S    0.042345   0.000000
    2  CL 1  S    0.008811   0.000000
    3  CL 1  X    0.000000  -0.000998
    4  CL 1  Y    0.000000  -0.000193
    5  CL 1  Z    0.120962   0.000000
    6  CL 1  S    1.030449   0.000000
    7  CL 1  X    0.000000  -0.017457
    8  CL 1  Y    0.000000  -0.003371
    9  CL 1  Z   -0.477503   0.000000
   10  CL 1  S   -2.609963   0.000000
   11  CL 1  X    0.000000   0.085334
   12  CL 1  Y    0.000000   0.016477
   13  CL 1  Z    1.654600   0.000000
   14  CL 1 XX    0.035250   0.000000
   15  CL 1 YY    0.035250   0.000000
   16  CL 1 ZZ    0.197450   0.000000
   17  CL 1 XY    0.000000   0.000000
   18  CL 1 XZ    0.000000   0.679179
   19  CL 1 YZ    0.000000   0.131142
   20  CL 2  S   -0.042345   0.000000
   21  CL 2  S   -0.008811   0.000000
   22  CL 2  X    0.000000  -0.000998
   23  CL 2  Y    0.000000  -0.000193
   24  CL 2  Z    0.120962   0.000000
   25  CL 2  S   -1.030449   0.000000
   26  CL 2  X    0.000000  -0.017457
   27  CL 2  Y    0.000000  -0.003371
   28  CL 2  Z   -0.477503   0.000000
   29  CL 2  S    2.609963   0.000000
   30  CL 2  X    0.000000   0.085334
   31  CL 2  Y    0.000000   0.016477
   32  CL 2  Z    1.654600   0.000000
   33  CL 2 XX   -0.035250   0.000000
   34  CL 2 YY   -0.035250   0.000000
   35  CL 2 ZZ   -0.197450   0.000000
   36  CL 2 XY    0.000000   0.000000
   37  CL 2 XZ    0.000000  -0.679179
   38  CL 2 YZ    0.000000  -0.131142

     ----------------------------------------------------------------
     PROPERTY VALUES FOR THE UHF   SELF-CONSISTENT FIELD WAVEFUNCTION
     ----------------------------------------------------------------

          -----------------
          ENERGY COMPONENTS
          -----------------

         WAVEFUNCTION NORMALIZATION =       1.0000000000

                ONE ELECTRON ENERGY =   -1422.7459347484
                TWO ELECTRON ENERGY =     426.9763606968
           NUCLEAR REPULSION ENERGY =      76.8567570170
                                      ------------------
                       TOTAL ENERGY =    -918.9128170346

 ELECTRON-ELECTRON POTENTIAL ENERGY =     426.9763606968
  NUCLEUS-ELECTRON POTENTIAL ENERGY =   -2341.3926898823
   NUCLEUS-NUCLEUS POTENTIAL ENERGY =      76.8567570170
                                      ------------------
             TOTAL POTENTIAL ENERGY =   -1837.5595721686
               TOTAL KINETIC ENERGY =     918.6467551339
                 VIRIAL RATIO (V/T) =       2.0002896237

  ...... PI ENERGY ANALYSIS ......

 ENERGY ANALYSIS:
            FOCK ENERGY=   -568.7932152042
          BARE H ENERGY=  -1422.7459347484
     ELECTRONIC ENERGY =   -995.7695749763
         KINETIC ENERGY=    918.6467551339
          N-N REPULSION=     76.8567570170
           TOTAL ENERGY=   -918.9128179594
        SIGMA PART(1+2)=   -750.3904254380
               (K,V1,2)=    734.7684899596  -1735.4966978933    250.3377824956
           PI PART(1+2)=   -245.3791495383
               (K,V1,2)=    183.8782651743   -605.8959919891    176.6385772764
  SIGMA SKELETON, ERROR=   -673.5336684210     -0.0000000000
             MIXED PART= 0.00000E+00 0.00000E+00 0.00000E+00 0.00000E+00
 ...... END OF PI ENERGY ANALYSIS ......

          ---------------------------------------
          MULLIKEN AND LOWDIN POPULATION ANALYSES
          ---------------------------------------

     ATOMIC MULLIKEN POPULATION IN EACH MOLECULAR ORBITAL
        ALPHA ORBITALS

                      1          2          3          4          5

                  1.000000   1.000000   1.000000   1.000000   1.000000

    1             0.500000   0.500000   0.500000   0.500000   0.500000
    2             0.500000   0.500000   0.500000   0.500000   0.500000

                      6          7          8          9         10

                  1.000000   1.000000   1.000000   1.000000   1.000000

    1             0.500000   0.500000   0.500000   0.500000   0.500000
    2             0.500000   0.500000   0.500000   0.500000   0.500000

                     11         12         13         14         15

                  1.000000   1.000000   1.000000   1.000000   1.000000

    1             0.500000   0.500000   0.500000   0.500000   0.500000
    2             0.500000   0.500000   0.500000   0.500000   0.500000

                     16         17

                  1.000000   1.000000

    1             0.500000   0.500000
    2             0.500000   0.500000

     ATOMIC MULLIKEN POPULATION IN EACH MOLECULAR ORBITAL
         BETA ORBITALS

                      1          2          3          4          5

                  1.000000   1.000000   1.000000   1.000000   1.000000

    1             0.500000   0.500000   0.500000   0.500000   0.500000
    2             0.500000   0.500000   0.500000   0.500000   0.500000

                      6          7          8          9         10

                  1.000000   1.000000   1.000000   1.000000   1.000000

    1             0.500000   0.500000   0.500000   0.500000   0.500000
    2             0.500000   0.500000   0.500000   0.500000   0.500000

                     11         12         13         14         15

                  1.000000   1.000000   1.000000   1.000000   1.000000

    1             0.500000   0.500000   0.500000   0.500000   0.500000
    2             0.500000   0.500000   0.500000   0.500000   0.500000

                     16         17

                  1.000000   1.000000

    1             0.500000   0.500000
    2             0.500000   0.500000

     ATOMIC SPIN POPULATION (ALPHA MINUS BETA)
       ATOM         MULL.POP.                    LOW.POP.
    1 CL            0.000000                     0.000000
    2 CL            0.000000                     0.000000


          ********* ALL ELECTRONS ********

               ----- POPULATIONS IN EACH AO -----
                             MULLIKEN      LOWDIN
              1  CL 1  S      1.99890     1.99849
              2  CL 1  S      1.99856     1.98223
              3  CL 1  X      1.99534     1.97812
              4  CL 1  Y      1.99534     1.97812
              5  CL 1  Z      1.99019     1.95526
              6  CL 1  S      1.39008     0.65893
              7  CL 1  X      1.35908     1.27867
              8  CL 1  Y      1.35908     1.27867
              9  CL 1  Z      0.77635     0.70988
             10  CL 1  S      0.57715     0.48429
             11  CL 1  X      0.63982     0.73655
             12  CL 1  Y      0.63982     0.73655
             13  CL 1  Z      0.23257     0.40489
             14  CL 1 XX      0.00189     0.26678
             15  CL 1 YY      0.00189     0.26678
             16  CL 1 ZZ      0.03242     0.27246
             17  CL 1 XY      0.00000     0.00000
             18  CL 1 XZ      0.00576     0.00666
             19  CL 1 YZ      0.00576     0.00666
             20  CL 2  S      1.99890     1.99849
             21  CL 2  S      1.99856     1.98223
             22  CL 2  X      1.99534     1.97812
             23  CL 2  Y      1.99534     1.97812
             24  CL 2  Z      1.99019     1.95526
             25  CL 2  S      1.39008     0.65893
             26  CL 2  X      1.35908     1.27867
             27  CL 2  Y      1.35908     1.27867
             28  CL 2  Z      0.77635     0.70988
             29  CL 2  S      0.57715     0.48429
             30  CL 2  X      0.63982     0.73655
             31  CL 2  Y      0.63982     0.73655
             32  CL 2  Z      0.23257     0.40489
             33  CL 2 XX      0.00189     0.26678
             34  CL 2 YY      0.00189     0.26678
             35  CL 2 ZZ      0.03242     0.27246
             36  CL 2 XY      0.00000     0.00000
             37  CL 2 XZ      0.00576     0.00666
             38  CL 2 YZ      0.00576     0.00666

          ----- MULLIKEN ATOMIC OVERLAP POPULATIONS -----
          (OFF-DIAGONAL ELEMENTS NEED TO BE MULTIPLIED BY 2)

             1           2

    1   17.0119087
    2   -0.0119087  17.0119087

          TOTAL MULLIKEN AND LOWDIN ATOMIC POPULATIONS
       ATOM         MULL.POP.    CHARGE          LOW.POP.     CHARGE
    1 CL           17.000000    0.000000        17.000000   -0.000000
    2 CL           17.000000   -0.000000        17.000000    0.000000

          -------------------------------
          BOND ORDER AND VALENCE ANALYSIS     BOND ORDER THRESHOLD=0.050
          -------------------------------

                   BOND                       BOND                       BOND
  ATOM PAIR DIST  ORDER      ATOM PAIR DIST  ORDER      ATOM PAIR DIST  ORDER
    1   2  1.990  0.884

                       TOTAL       BONDED        FREE
      ATOM            VALENCE     VALENCE     VALENCE
    1 CL                0.884       0.884      -0.000
    2 CL                0.884       0.884       0.000

          -----------------------------------------
          ATOMIC SPIN DENSITY AT THE NUCLEUS (A.U.)
          -----------------------------------------
                            SPIN DENS    ALPHA DENS     BETA DENS
    1  CL          17.0     0.0000000    1511.64064    1511.64064
    2  CL          17.0     0.0000000    1511.64064    1511.64064

          ---------------------
          ELECTROSTATIC MOMENTS
          ---------------------

 POINT   1           X           Y           Z (BOHR)    CHARGE
                 0.000000    0.000000   -0.000000       -0.00 (A.U.)
         DX          DY          DZ         /D/  (DEBYE)
     0.000000    0.000000   -0.000000    0.000000
 ...... END OF PROPERTY EVALUATION ......
 STEP CPU TIME =     0.00 TOTAL CPU TIME =          0.3 (      0.0 MIN)
 TOTAL WALL CLOCK TIME=          0.3 SECONDS, CPU UTILIZATION IS    99.56%
  $VIB   
          IVIB=   0 IATOM=   0 ICOORD=   0 E=     -918.9128170346
  0.000000000E+00 0.000000000E+00 5.801676972E-06 0.000000000E+00 0.000000000E+00
 -5.801676925E-06
  0.000000000E+00 0.000000000E+00-1.173921689E-13
 ......END OF GEOMETRY SEARCH......
 STEP CPU TIME =     0.00 TOTAL CPU TIME =          0.3 (      0.0 MIN)
 TOTAL WALL CLOCK TIME=          0.3 SECONDS, CPU UTILIZATION IS    99.56%
               993587  WORDS OF DYNAMIC MEMORY USED
 EXECUTION OF GAMESS TERMINATED NORMALLY 19:56:15 20-OCT-2025    
----- accounting info -----
Files used on the parent node Macbooks-MacBook-Pro.local were:
-rw-r--r--  1 macbookpro  staff      241 Oct 20 19:56 /Users/macbookpro/local/gamess/scr/cl2_q0m1_uhf_631g_star.F05
-rw-r--r--  1 macbookpro  staff   900080 Oct 20 19:56 /Users/macbookpro/local/gamess/scr/cl2_q0m1_uhf_631g_star.F08
-rw-r--r--  1 macbookpro  staff  2094080 Oct 20 19:56 /Users/macbookpro/local/gamess/scr/cl2_q0m1_uhf_631g_star.F10
-rw-r--r--  1 macbookpro  staff   162779 Oct 20 19:56 /Users/macbookpro/local/gamess/scr/cl2_q0m1_uhf_631g_star.dat
Mon Oct 20 19:56:15 +07 2025
0.290u 0.055s 0:00.34 100.0%	0+0k 0+0io 46pf+0w
