1 : clf_q0m1_uhf_631g_star.inp
----- GAMESS execution script 'rungms' -----
This job is running on host Macbooks-MacBook-Pro.local
under operating system Darwin at Mon Oct 20 19:56:11 +07 2025
Available scratch disk space (Kbyte units) at beginning of the job is
Filesystem   1024-blocks      Used Available Capacity iused      ifree %iused  Mounted on
/dev/disk3s5   482797652 122176596 339916616    27% 1896426 3399166160    0%   /System/Volumes/Data
GAMESS temporary binary files will be written to /Users/macbookpro/local/gamess/scr
GAMESS supplementary output files will be written to /Users/macbookpro/local/gamess/scr
Copying input file /Users/macbookpro/sq2_data/clf_q0m1_uhf_631g_star.inp to your run's scratch directory...
          *******************************************************
          *                                                     *
          *          GAMESS VERSION = 30 JUN 2023 (R1)          *
          *                                                     *
          *              doi.org/10.1063/5.0005188              *
          *                                                     *
          **************** 64 BIT LINUX VERSION *****************

  GAMESS HAS BEEN MADE POSSIBLE WITH IMPORTANT CONTRIBUTIONS FROM
  THE FOLLOWING INDIVIDUALS (IN ALPHABETICAL ORDER):

     IVANA ADAMOVIC, CHRISTINE AIKENS, TOMOKO AKAMA,
     MELISA ALKAN, YURI ALEXEEV, YURIKO AOKI, POOJA ARORA,
     TOSHIO ASADA, ANDREY ASADCHEV, KIM K. BALDRIDGE,
     PRADIPTA BANDYOPADHYAY, TAYLOR A. BARNES, MARIA BARYSZ,
     ROB BELL, JONATHAN BENTZ, COLLEEN BERTONI,
     JERRY A. BOATZ, BRETT BODE, KURT BRORSEN, KURT R. BRORSEN,
     LAIMUTIS BYTAUTAS, CALEB CARLIN, LAURA CARRINGTON,
     GALINA CHABAN, BENOIT CHAMPAGNE, WEI CHEN, MAHITO CHIBA,
     DAN CHIPMAN, CHEOL HO CHOI, TANNER CULPITT,
     DIPAYAN DATTA, PAUL DAY, ALBERT DEFUSCO,
     NUWAN DESILVA, J. EMILIANO DEUSTUA,
     TIM DUDLEY, MICHEL DUPUIS, STEVEN T. ELBERT,
     DMITRI FEDOROV, KATHERINE FERRERAS, MICHAEL FILATOV,
     ALEX FINDLATER,GRAHAM FLETCHER, MARK FREITAG,
     CHRISTIAN FRIEDL, DAVID GARMER, 
     IGOR S. GERASIMOV, KURT GLAESEMANN,
     MARK S. GORDON, JEFFREY R. GOUR, FENG LONG GU,
     EMILIE B. GUIDEZ, ANASTASIA GUNINA, SHARON HAMMES-SCHIFFER,
     MASATAKE HARUTA, KIMIHIKO HIRAO, YASUHIRO IKABATA,
     TZVETELIN IORDANOV, STEPHAN IRLE, KAZUYA ISHIMURA,
     JOE IVANIC, FRANK JENSEN, JAN H. JENSEN, VISVALDAS KAIRYS,
     MUNEAKI KAMIYA, MICHIO KATOUDA, NAOAKI KAWAKAMI, DAN KEMP,
     BERNARD KIRTMAN, KAZUO KITAURA, MARIUSZ KLOBUKOWSKI,
     MASATO KOBAYASHI, KONSTANTIN KOMAROV, PRAKASHAN KORAMBATH,
     JACEK KORCHOWIEC, SHIRO KOSEKI, KAROL KOWALSKI,
     JIMMY KROMANN, STANISLAW A. KUCHARSKI, HENRY KURTZ,
     SAROM SOK LEANG, SEUNGHOON LEE, HUI LI, SHUHUA LI, WEI LI,
     JESSE J. LUTZ, ALEKSANDR O. LYKHIN,
     ILIAS MAGOULAS, MARCIN MAKOWSKI,
     JOANI MATO, NIKITA MATSUNAGA, BENEDETTA MENNUCCI,
     GRANT MERRILL, NORIYUKI MINEZAWA, VLADIMIR MIRONOV,
     EISAKU MIYOSHI, JOHN A. MONTGOMERY JR., HIROTOSHI MORI,
     JONATHAN MULLIN, MONIKA MUSIAL, SHIGERU NAGASE,
     TAKESHI NAGATA, HIROMI NAKAI, TAKAHITO NAKAJIMA,
     YUYA NAKAJIMA, HARUYUKI NAKANO, HIROYA NAKATA, SEAN NEDD,
     HEATHER NETZLOFF, KIET A. NGUYEN, YOSHIO NISHIMOTO,
     BOSILJKA NJEGIC, RYAN OLSON, MIKE PAK, ROBERTO PEVERATI,
     BUU PHAM, PIOTR PIECUCH, ANNA POMOGAEVA, DAVID POOLE,
     SPENCER PRUITT, OLIVIER QUINET, LUKE ROSKOP,
     KLAUS RUEDENBERG, ANDREW SAND, TOSAPORN SATTASATHUCHANA,
     NOZOMI SAWADA, MICHAEL W. SCHMIDT, PATRICK E. SCHNEIDER,
     JUNJI SEINO, PRACHI SHARMA, JUN SHEN, JIM SHOEMAKER,
     YINAN SHU, DEJUN SI, JONATHAN SKONE, LYUDMILA SLIPCHENKO,
     TONY SMITH, JIE SONG, MARK SPACKMAN, CASPER STEINMANN,
     WALT STEVENS, PEIFENG SU, SHUJUN SU, CHET SWALINA,
     CHINAMI TAKASHIMA, TETSUYA TAKETSUGU, ZHEN TAO,
     NANDUN THELLAMUREGE, SEIKEN TOKURA, JACOPO TOMASI,
     TSUGUKI TOUMA, TAKAO TSUNEDA, HIROAKI UMEDA,
     JORGE LUIS GALVEZ VALLEJO, YALI WANG, SIMON WEBB,
     AARON WEST, THERESA L. WINDUS, MARTA WLOCH,
     PENG XU, KIYOSHI YAGI, SUSUMU YANAGISAWA, YANG YANG,
     SOOHAENG YOO, TAKESHI YOSHIKAWA, FEDERICO ZAHARIEV,
     TOBY ZENG

  WHO ARE SUPPORTED BY THEIR INSTITUTION/UNIVERSITY/COMPANY/GROUP
  (IN ALPHABETICAL ORDER):

     EP ANALYTICS,
     FACULTES UNIVERSITAIRES NOTRE-DAME DE LA PAIX,
     INSTITUTE FOR MOLECULAR SCIENCE, IOWA STATE UNIVERSITY,
     JACKSON STATE UNIVERSITY, JOHANNES KEPLER UNIVERSITY LINZ,
     KYUNGPOOK NATIONAL UNIVERSITY
     KYUSHU UNIVERSITY, MICHIGAN STATE UNIVERSITY,
     MIE UNIVERSITY, THE MOLECULAR SCIENCES SOFTWARE INSTITUTE,
     MOSCOW STATE UNIVERSITY,
     N. COPERNICUS UNIVERSITY, NAGOYA UNIVERSITY,
     NANJING UNIVERSITY, NAT. INST. OF ADVANCED INDUSTRIAL
     SCIENCE AND TECHNOLOGY, NATIONAL INST. OF STANDARDS AND
     TECHNOLOGY, NESMEYANOV INSTITUTE OF ORGANOELEMENT COMPOUNDS
     OF RUSSIAN ACADEMY OF SCIENCES, OSAKA PREFECTURE UNIVERSITY,
     PENNSYLVANIA STATE UNIVERSITY, TOKYO INSTITUTE OF TECHNOLOGY,
     UNIVERSITY OF AARHUS, UNIVERSITY OF ALBERTA,
     UNIVERSITY OF CALIFORNIA AT SANTA BARBARA,
     UNIVERSITY OF COPENHAGEN, UNIVERSITY OF IOWA,
     UNIVERSITY OF MEMPHIS, UNIVERSITY OF MINNESOTA,
     UNIVERSITY OF NEBRASKA, UNIVERSITY OF NEW ENGLAND,
     UNIVERSITY OF NOTRE DAME, UNIVERSITY OF PISA,
     UNIVERSITY OF SILESIA, UNIVERSITY OF TOKYO,
     UNIVERSITY OF ZURICH, WASEDA UNIVERSITY,
     YALE UNIVERSITY

  GAMESS SOFTWARE MANAGEMENT TEAM FOR THIS RELEASE:
     MARK S. GORDON (TEAM LEAD),
     BRETT BODE (SENIOR ADVISOR),
     GIUSEPPE BARCA,
     COLLEEN BERTONI,
     KRISTOPHER KEIPERT (ADVISOR),
     SAROM S. LEANG (DEVELOPMENT LEAD),
     BUU PHAM,
     JACKSON HAYES (WEBSITE ADMINISTRATOR),
     PENG XU

 EXECUTION OF GAMESS BEGUN 19:56:11 20-OCT-2025    

            ECHO OF THE FIRST FEW INPUT CARDS -
 INPUT CARD> $CONTRL SCFTYP=UHF ICHARG=0 MULT=1                                             
 INPUT CARD> RUNTYP=OPTIMIZE                                                                
 INPUT CARD> $END                                                                           
 INPUT CARD> $BASIS GBASIS=N31 NGAUSS=6 NDFUNC=1 $END                                       
 INPUT CARD> $DATA                                                                          
 INPUT CARD> ... this is comment ...                                                        
 INPUT CARD> C1                                                                             
 INPUT CARD> F     9   0.00000000   0.00000000  -1.08328761                                 
 INPUT CARD> CL   17   0.00000000   0.00000000   0.57782661                                 
 INPUT CARD> $END                                                                           
 INPUT CARD>                                                                                
      1000000 WORDS OF MEMORY AVAILABLE

     BASIS OPTIONS
     -------------
     GBASIS=N31          IGAUSS=       6      POLAR=POPN31  
     NDFUNC=       1     NFFUNC=       0     DIFFSP=       F
     NPFUNC=       0      DIFFS=       F     BASNAM=        


     RUN TITLE
     ---------
  ... this is comment ...                                                        

 THE POINT GROUP OF THE MOLECULE IS C1      
 THE ORDER OF THE PRINCIPAL AXIS IS     0

 ATOM      ATOMIC                      COORDINATES (BOHR)
           CHARGE         X                   Y                   Z
 F           9.0     0.0000000000        0.0000000000       -2.0471167488
 CL         17.0     0.0000000000        0.0000000000        1.0919339613

          INTERNUCLEAR DISTANCES (ANGS.)
          ------------------------------

                1 F          2 CL    

   1 F       0.0000000    1.6611142 *
   2 CL      1.6611142 *  0.0000000  

  * ... LESS THAN  3.000


     ATOMIC BASIS SET
     ----------------
 THE CONTRACTED PRIMITIVE FUNCTIONS HAVE BEEN UNNORMALIZED
 THE CONTRACTED BASIS FUNCTIONS ARE NOW NORMALIZED TO UNITY

  SHELL TYPE  PRIMITIVE        EXPONENT          CONTRACTION COEFFICIENT(S)

 F         

      1   S       1          7001.7130900    0.001819616901
      1   S       2          1051.3660900    0.013916079607
      1   S       3           239.2856900    0.068405324535
      1   S       4            67.3974453    0.233185760119
      1   S       5            21.5199573    0.471267439240
      1   S       6             7.4031013    0.356618546182

      2   L       7            20.8479528   -0.108506975109    0.071628724237
      2   L       8             4.8083083   -0.146451658147    0.345912102697
      2   L       9             1.3440699    1.128688581135    0.722469956367

      3   L      10             0.3581514    1.000000000000    1.000000000000

      4   D      11             0.8000000    1.000000000000

 CL        

      5   S      12         25180.1000000    0.001832959848
      5   S      13          3780.3500000    0.014034198835
      5   S      14           860.4740000    0.069097394263
      5   S      15           242.1450000    0.237451980285
      5   S      16            77.3349000    0.483033959896
      5   S      17            26.2470000    0.339855971783

      6   L      18           491.7650000   -0.002297391417    0.003989400879
      6   L      19           116.9840000   -0.030713718938    0.030317706682
      6   L      20            37.4153000   -0.112528069386    0.129880028625
      6   L      21            13.7834000    0.045016327757    0.327951072278
      6   L      22             5.4521500    0.589353363399    0.453527099954
      6   L      23             2.2258800    0.465206286849    0.252154055573

      7   L      24             3.1864900   -0.251831288046   -0.014299314719
      7   L      25             1.1442700    0.061589315012    0.323572333073
      7   L      26             0.4203770    1.060185422549    0.743507765337

      8   L      27             0.1426570    1.000000000000    1.000000000000

      9   D      28             0.7500000    1.000000000000

 TOTAL NUMBER OF BASIS SET SHELLS             =    9
 NUMBER OF CARTESIAN GAUSSIAN BASIS FUNCTIONS =   34
 NUMBER OF ELECTRONS                          =   26
 CHARGE OF MOLECULE                           =    0
 SPIN MULTIPLICITY                            =    1
 NUMBER OF OCCUPIED ORBITALS (ALPHA)          =   13
 NUMBER OF OCCUPIED ORBITALS (BETA )          =   13
 TOTAL NUMBER OF ATOMS                        =    2
 THE NUCLEAR REPULSION ENERGY IS       48.7408500625

 THIS MOLECULE IS RECOGNIZED AS BEING LINEAR,
 ORBITAL LZ DEGENERACY TOLERANCE ETOLLZ= 1.00E-06

     $CONTRL OPTIONS
     ---------------
 SCFTYP=UHF          RUNTYP=OPTIMIZE     EXETYP=RUN     
 MPLEVL=       0     CITYP =NONE         CCTYP =NONE         VBTYP =NONE    
 DFTTYP=NONE         TDDFT =NONE    
 MULT  =       1     ICHARG=       0     NZVAR =       0     COORD =UNIQUE  
 PP    =NONE         RELWFN=NONE         LOCAL =NONE         NUMGRD=       F
 ISPHER=      -1     NOSYM =       0     MAXIT =      30     UNITS =ANGS    
 PLTORB=       F     MOLPLT=       F     AIMPAC=       F     FRIEND=        
 NPRINT=       7     IREST =       0     GEOM  =INPUT   
 NORMF =       0     NORMP =       0     ITOL  =      20     ICUT  =       9
 INTTYP=BEST         GRDTYP=BEST         QMTTOL= 1.0E-06

     $SYSTEM OPTIONS
     ---------------
  REPLICATED MEMORY=     1000000 WORDS (ON EVERY NODE).
 DISTRIBUTED MEMDDI=           0 MILLION WORDS IN AGGREGATE,
 MEMDDI DISTRIBUTED OVER   1 PROCESSORS IS           0 WORDS/PROCESSOR.
 TOTAL MEMORY REQUESTED ON EACH PROCESSOR=     1000000 WORDS.
 TIMLIM=      525600.00 MINUTES, OR     365.0 DAYS.
 PARALL= F  BALTYP=  DLB     KDIAG=    0  COREFL= F
 MXSEQ2=     300 MXSEQ3=     150  mem10=         0  mem22=         0

          ----------------
          PROPERTIES INPUT
          ----------------

     MOMENTS            FIELD           POTENTIAL          DENSITY
 IEMOM =       1   IEFLD =       0   IEPOT =       0   IEDEN =       0
 WHERE =COMASS     WHERE =NUCLEI     WHERE =NUCLEI     WHERE =NUCLEI  
 OUTPUT=BOTH       OUTPUT=BOTH       OUTPUT=BOTH       OUTPUT=BOTH    
 IEMINT=       0   IEFINT=       0                     IEDINT=       0
                                                       MORB  =       0
          EXTRAPOLATION IN EFFECT
          SOSCF IN EFFECT
          DIIS or SOSCF will be reset if energy rises
 ORBITAL PRINTING OPTION: NPREO=     1    34     2     1

     -------------------------------
     INTEGRAL TRANSFORMATION OPTIONS
     -------------------------------
     NWORD  =            0
     CUTTRF = 1.0E-09     MPTRAN =       0
     DIRTRF =       F     AOINTS =DUP     

          ----------------------
          INTEGRAL INPUT OPTIONS
          ----------------------
 NOPK  =       1 NORDER=       0 SCHWRZ=       F

     ------------------------------------------
     THE POINT GROUP IS C1 , NAXIS= 0, ORDER= 1
     ------------------------------------------

     DIMENSIONS OF THE SYMMETRY SUBSPACES ARE
 A   =   34

 ..... DONE SETTING UP THE RUN .....
 STEP CPU TIME =     0.00 TOTAL CPU TIME =          0.0 (      0.0 MIN)
 TOTAL WALL CLOCK TIME=          0.0 SECONDS, CPU UTILIZATION IS    97.49%


          -----------------------------
          STATIONARY POINT LOCATION RUN
          -----------------------------

 OBTAINING INITIAL HESSIAN, HESS=GUESS   
 CARTESIAN COORDINATE OPTIMIZATION USING BADGER'S RULE FORCE CONSTANT GUESS

          PARAMETERS CONTROLLING GEOMETRY SEARCH ARE
          METHOD =QA                  UPHESS =BFGS    
          NNEG   =         0          NFRZ   =         0
          NSTEP  =        50          IFOLOW =         1
          HESS   =GUESS               RESTAR =         F
          IHREP  =         0          HSSEND =         F
          NPRT   =         0          NPUN   =         0
          OPTTOL = 1.000E-04          RMIN   = 1.500E-03
          RMAX   = 1.000E-01          RLIM   = 7.000E-02
          DXMAX  = 3.000E-01          PURIFY =         F
          MOVIE  =         F          TRUPD  =         T
          TRMAX  = 5.000E-01          TRMIN  = 5.000E-02
          ITBMAT =         5          STPT   =         F
          STSTEP = 1.000E-02          PROJCT=          T

 BEGINNING GEOMETRY SEARCH POINT NSERCH=   0 ...

 COORDINATES OF ALL ATOMS ARE (ANGS)
   ATOM   CHARGE       X              Y              Z
 ------------------------------------------------------------
 F           9.0   0.0000000000   0.0000000000  -1.0832876100
 CL         17.0   0.0000000000   0.0000000000   0.5778266100

          ********************
          1 ELECTRON INTEGRALS
          ********************
 ...... END OF ONE-ELECTRON INTEGRALS ......
 STEP CPU TIME =     0.00 TOTAL CPU TIME =          0.0 (      0.0 MIN)
 TOTAL WALL CLOCK TIME=          0.0 SECONDS, CPU UTILIZATION IS    97.75%

          -------------
          GUESS OPTIONS
          -------------
          GUESS =HUCKEL            NORB  =       0          NORDER=       0
          MIX   =       F          PRTMO =       F          PUNMO =       F
          TOLZ  = 1.0E-08          TOLE  = 1.0E-05
          SYMDEN=       F          PURIFY=       F

 INITIAL GUESS ORBITALS GENERATED BY HUCKEL   ROUTINE.
 HUCKEL GUESS REQUIRES     11066 WORDS.

 SYMMETRIES FOR INITIAL GUESS ORBITALS FOLLOW.  ALPHA SET(S).
    13 ORBITALS ARE OCCUPIED (    6 CORE ORBITALS).
     7=A        8=A        9=A       10=A       11=A       12=A       13=A   
    14=A       15=A       16=A       17=A       18=A       19=A       20=A   
    21=A       22=A       23=A   

 SYMMETRIES FOR INITIAL GUESS ORBITALS FOLLOW.   BETA SET(S).
    13 ORBITALS ARE OCCUPIED (    6 CORE ORBITALS).
     7=A        8=A        9=A       10=A       11=A       12=A       13=A   
    14=A       15=A       16=A       17=A       18=A       19=A       20=A   
    21=A       22=A       23=A   
 ...... END OF INITIAL ORBITAL SELECTION ......
 STEP CPU TIME =     0.00 TOTAL CPU TIME =          0.0 (      0.0 MIN)
 TOTAL WALL CLOCK TIME=          0.0 SECONDS, CPU UTILIZATION IS    98.11%

                    ----------------------
                    AO INTEGRAL TECHNOLOGY
                    ----------------------
     S,P,L SHELL ROTATED AXIS INTEGRALS, REPROGRAMMED BY
        KAZUYA ISHIMURA (IMS) AND JOSE SIERRA (SYNSTAR).
     S,P,D,L SHELL ROTATED AXIS INTEGRALS PROGRAMMED BY
        KAZUYA ISHIMURA (INSTITUTE FOR MOLECULAR SCIENCE).
     S,P,D,F,G SHELL TO TOTAL QUARTET ANGULAR MOMENTUM SUM 5,
        ERIC PROGRAM BY GRAHAM FLETCHER (ELORET AND NASA ADVANCED
        SUPERCOMPUTING DIVISION, AMES RESEARCH CENTER).
     S,P,D,F,G,L SHELL GENERAL RYS QUADRATURE PROGRAMMED BY
        MICHEL DUPUIS (PACIFIC NORTHWEST NATIONAL LABORATORY).

          --------------------
          2 ELECTRON INTEGRALS
          --------------------

 THE -PK- OPTION IS OFF, THE INTEGRALS ARE NOT IN SUPERMATRIX FORM.
 STORING   15000 INTEGRALS/RECORD ON DISK, USING 12 BYTES/INTEGRAL.
 TWO ELECTRON INTEGRAL EVALUATION REQUIRES   90441 WORDS OF MEMORY.
 II,JST,KST,LST =  1  1  1  1 NREC =         1 INTLOC =    1
 II,JST,KST,LST =  2  1  1  1 NREC =         1 INTLOC =    2
 II,JST,KST,LST =  3  1  1  1 NREC =         1 INTLOC =   34
 II,JST,KST,LST =  4  1  1  1 NREC =         1 INTLOC =  214
 II,JST,KST,LST =  5  1  1  1 NREC =         1 INTLOC = 1189
 II,JST,KST,LST =  6  1  1  1 NREC =         1 INTLOC = 1718
 II,JST,KST,LST =  7  1  1  1 NREC =         1 INTLOC = 5161
 II,JST,KST,LST =  8  1  1  1 NREC =         1 INTLOC =11533
 II,JST,KST,LST =  9  1  1  1 NREC =         2 INTLOC = 6731
 TOTAL NUMBER OF NONZERO TWO-ELECTRON INTEGRALS =               45487
          4 INTEGRAL RECORDS WERE STORED ON DISK FILE  8.
  ...... END OF TWO-ELECTRON INTEGRALS .....
 STEP CPU TIME =     0.01 TOTAL CPU TIME =          0.0 (      0.0 MIN)
 TOTAL WALL CLOCK TIME=          0.0 SECONDS, CPU UTILIZATION IS    99.28%

          ---------------------------
                  UHF SCF CALCULATION
          ---------------------------

     NUCLEAR ENERGY =        48.7408500625
     MAXIT = 30     NPUNCH=  2     MULT=  1
     EXTRAP=T  DAMP=F  SHIFT=F  RSTRCT=F  DIIS=F  SOSCF=T
     DENSITY MATRIX CONV=  1.00E-05
     SOSCF WILL OPTIMIZE     273 ALPHA AND     273 BETA ROTATION ANGLES.
     SOGTOL= 2.500E-01
     MEMORY REQUIRED FOR UHF/ROHF ITERS=     45926 WORDS.

 ITER EX      TOTAL ENERGY        E CHANGE  DENSITY CHANGE    ORB. GRAD 
   1  0     -558.4175742889  -558.4175742889   0.207562900   0.000000000
          ---------------START SECOND ORDER SCF---------------
   2  1     -558.8025397546    -0.3849654658   0.055069252   0.049503310
   3  2     -558.8157881897    -0.0132484350   0.029877735   0.018787712
   4  3     -558.8178775531    -0.0020893635   0.005650886   0.004486430
   5  4     -558.8180063659    -0.0001288127   0.000957751   0.000905044
   6  5     -558.8180132359    -0.0000068700   0.000261419   0.000130650
   7  6     -558.8180134423    -0.0000002065   0.000087217   0.000030750
   8  7     -558.8180134579    -0.0000000156   0.000022114   0.000009357
   9  8     -558.8180134590    -0.0000000011   0.000008138   0.000003096
  10  9     -558.8180134591    -0.0000000001   0.000001125   0.000000559

          -----------------
          DENSITY CONVERGED
          -----------------
     TIME TO FORM FOCK OPERATORS=       0.0 SECONDS (       0.0 SEC/ITER)
     TIME TO SOLVE SCF EQUATIONS=       0.0 SECONDS (       0.0 SEC/ITER)

 FINAL UHF ENERGY IS     -558.8180134591 AFTER  10 ITERATIONS

          --------------------
          SPIN SZ   =    0.000
          S-SQUARED =   -0.000
          --------------------

 LZ VALUE ANALYSIS FOR THE MOS
 ----------------------------------------
 MO     1 (    1) HAS LZ(WEIGHT)= 0.00(100.0%) 
 MO     2 (    2) HAS LZ(WEIGHT)= 0.00(100.0%) 
 MO     3 (    3) HAS LZ(WEIGHT)= 0.00(100.0%) 
 MO     4 (    4) HAS LZ(WEIGHT)= 0.00(100.0%) 
 MO     5 (    5) HAS LZ(WEIGHT)=-1.00( 50.0%)  1.00( 50.0%) 
 MO     6 (    5) HAS LZ(WEIGHT)=-1.00( 50.0%)  1.00( 50.0%) 
 MO     7 (    6) HAS LZ(WEIGHT)= 0.00(100.0%) 
 MO     8 (    7) HAS LZ(WEIGHT)= 0.00(100.0%) 
 MO     9 (    8) HAS LZ(WEIGHT)=-1.00( 50.0%)  1.00( 50.0%) 
 MO    10 (    8) HAS LZ(WEIGHT)=-1.00( 50.0%)  1.00( 50.0%) 
 MO    11 (    9) HAS LZ(WEIGHT)= 0.00(100.0%) 
 MO    12 (   10) HAS LZ(WEIGHT)=-1.00( 50.0%)  1.00( 50.0%) 
 MO    13 (   10) HAS LZ(WEIGHT)=-1.00( 50.0%)  1.00( 50.0%) 
 MO    14 (   11) HAS LZ(WEIGHT)= 0.00(100.0%) 
 MO    15 (   12) HAS LZ(WEIGHT)= 0.00(100.0%) 
 MO    16 (   13) HAS LZ(WEIGHT)= 0.00(100.0%) 
 MO    17 (   14) HAS LZ(WEIGHT)=-1.00( 50.0%)  1.00( 50.0%) 
 MO    18 (   14) HAS LZ(WEIGHT)=-1.00( 50.0%)  1.00( 50.0%) 
 MO    19 (   15) HAS LZ(WEIGHT)=-1.00( 50.0%)  1.00( 50.0%) 
 MO    20 (   15) HAS LZ(WEIGHT)=-1.00( 50.0%)  1.00( 50.0%) 
 MO    21 (   16) HAS LZ(WEIGHT)=-2.00( 50.0%)  2.00( 50.0%) 
 MO    22 (   16) HAS LZ(WEIGHT)=-2.00( 50.0%)  2.00( 50.0%) 
 MO    23 (   17) HAS LZ(WEIGHT)= 0.00(100.0%) 
 MO    24 (   18) HAS LZ(WEIGHT)= 0.00(100.0%) 
 MO    25 (   19) HAS LZ(WEIGHT)=-1.00( 50.0%)  1.00( 50.0%) 
 MO    26 (   19) HAS LZ(WEIGHT)=-1.00( 50.0%)  1.00( 50.0%) 
 MO    27 (   20) HAS LZ(WEIGHT)= 0.00(100.0%) 
 MO    28 (   21) HAS LZ(WEIGHT)=-2.00( 50.0%)  2.00( 50.0%) 
 MO    29 (   21) HAS LZ(WEIGHT)=-2.00( 50.0%)  2.00( 50.0%) 
 MO    30 (   22) HAS LZ(WEIGHT)=-1.00( 50.0%)  1.00( 50.0%) 
 MO    31 (   22) HAS LZ(WEIGHT)=-1.00( 50.0%)  1.00( 50.0%) 
 MO    32 (   23) HAS LZ(WEIGHT)= 0.00(100.0%) 
 MO    33 (   24) HAS LZ(WEIGHT)= 0.00(100.0%) 
 MO    34 (   25) HAS LZ(WEIGHT)= 0.00(100.0%) 

  ----- ALPHA SET ----- 

          ------------
          EIGENVECTORS
          ------------

                      1          2          3          4          5
                 -104.9259   -26.3559   -10.6508    -8.1208    -8.1153
                     A          A          A          A          A   
    1  F  1  S    0.000012   0.994481  -0.000031   0.000020   0.000000
    2  F  1  S    0.000099   0.017564   0.000370  -0.000762   0.000000
    3  F  1  X   -0.000000   0.000000   0.000000  -0.000000  -0.000013
    4  F  1  Y   -0.000000   0.000000   0.000000  -0.000000   0.000044
    5  F  1  Z    0.000031   0.000867   0.000361  -0.000439   0.000000
    6  F  1  S   -0.000186   0.008219  -0.000288   0.001215   0.000000
    7  F  1  X   -0.000000   0.000000   0.000000  -0.000000  -0.000013
    8  F  1  Y   -0.000000   0.000000   0.000000  -0.000000   0.000046
    9  F  1  Z    0.000032  -0.000404  -0.001166   0.002664   0.000000
   10  F  1 XX    0.000068  -0.004476   0.000298  -0.000652   0.000000
   11  F  1 YY    0.000068  -0.004476   0.000298  -0.000652   0.000000
   12  F  1 ZZ   -0.000005  -0.004926  -0.000846   0.001362   0.000000
   13  F  1 XY   -0.000000   0.000000   0.000000  -0.000000   0.000000
   14  F  1 XZ   -0.000000   0.000000   0.000000  -0.000000   0.000093
   15  F  1 YZ   -0.000000   0.000000   0.000000  -0.000000  -0.000321
   16  CL 2  S    0.996124  -0.000002  -0.286804  -0.002059   0.000000
   17  CL 2  S    0.014625   0.000010   1.030844   0.007730   0.000000
   18  CL 2  X   -0.000000   0.000000   0.000000  -0.000000  -0.275406
   19  CL 2  Y   -0.000000   0.000000   0.000000  -0.000000   0.954944
   20  CL 2  Z   -0.000067   0.000112  -0.006435   0.992461   0.000000
   21  CL 2  S   -0.017681  -0.000371   0.024102  -0.002710   0.000000
   22  CL 2  X   -0.000000   0.000000   0.000000  -0.000000  -0.005366
   23  CL 2  Y   -0.000000   0.000000   0.000000  -0.000000   0.018605
   24  CL 2  Z    0.000019  -0.000371  -0.001448   0.024116   0.000000
   25  CL 2  S    0.001416  -0.000209  -0.005066  -0.000738   0.000000
   26  CL 2  X   -0.000000   0.000000   0.000000  -0.000000   0.001138
   27  CL 2  Y   -0.000000   0.000000   0.000000  -0.000000  -0.003945
   28  CL 2  Z   -0.000019   0.000189   0.000158  -0.004892   0.000000
   29  CL 2 XX    0.006259   0.000107  -0.001515   0.001405   0.000000
   30  CL 2 YY    0.006259   0.000107  -0.001515   0.001405   0.000000
   31  CL 2 ZZ    0.006285   0.000569  -0.000209  -0.000917   0.000000
   32  CL 2 XY   -0.000000   0.000000   0.000000  -0.000000   0.000000
   33  CL 2 XZ   -0.000000   0.000000   0.000000  -0.000000   0.000124
   34  CL 2 YZ   -0.000000   0.000000   0.000000  -0.000000  -0.000431

                      6          7          8          9         10
                   -8.1153    -1.6179    -1.1023    -0.7081    -0.7081
                     A          A          A          A          A   
    1  F  1  S   -0.000000  -0.222228   0.068686  -0.000000  -0.000000
    2  F  1  S   -0.000000   0.519530  -0.154525  -0.000000  -0.000000
    3  F  1  X    0.000044  -0.000000  -0.000000  -0.161447   0.599667
    4  F  1  Y    0.000013  -0.000000  -0.000000   0.599667   0.161447
    5  F  1  Z   -0.000000   0.045331   0.152925  -0.000000  -0.000000
    6  F  1  S   -0.000000   0.450371  -0.206928  -0.000000  -0.000000
    7  F  1  X    0.000046  -0.000000  -0.000000  -0.112867   0.419225
    8  F  1  Y    0.000013  -0.000000  -0.000000   0.419225   0.112867
    9  F  1  Z   -0.000000   0.044217   0.091039  -0.000000  -0.000000
   10  F  1 XX   -0.000000   0.019707  -0.005254  -0.000000  -0.000000
   11  F  1 YY   -0.000000   0.019707  -0.005254  -0.000000  -0.000000
   12  F  1 ZZ   -0.000000   0.041883   0.016215  -0.000000  -0.000000
   13  F  1 XY   -0.000000  -0.000000  -0.000000  -0.000000  -0.000000
   14  F  1 XZ   -0.000321  -0.000000  -0.000000  -0.006353   0.023597
   15  F  1 YZ   -0.000093  -0.000000  -0.000000   0.023597   0.006353
   16  CL 2  S   -0.000000   0.017364   0.078888  -0.000000  -0.000000
   17  CL 2  S   -0.000000  -0.078027  -0.356677  -0.000000  -0.000000
   18  CL 2  X    0.954944  -0.000000  -0.000000   0.023581  -0.087588
   19  CL 2  Y    0.275406  -0.000000  -0.000000  -0.087588  -0.023581
   20  CL 2  Z   -0.000000   0.038780  -0.003394  -0.000000  -0.000000
   21  CL 2  S   -0.000000   0.144281   0.733242  -0.000000  -0.000000
   22  CL 2  X    0.018605  -0.000000  -0.000000  -0.059738   0.221885
   23  CL 2  Y    0.005366  -0.000000  -0.000000   0.221885   0.059738
   24  CL 2  Z   -0.000000  -0.078116   0.011812  -0.000000  -0.000000
   25  CL 2  S   -0.000000   0.028927   0.287671  -0.000000  -0.000000
   26  CL 2  X   -0.003945  -0.000000  -0.000000  -0.026941   0.100068
   27  CL 2  Y   -0.001138  -0.000000  -0.000000   0.100068   0.026941
   28  CL 2  Z   -0.000000   0.001748   0.015358  -0.000000  -0.000000
   29  CL 2 XX   -0.000000  -0.009335   0.000239  -0.000000  -0.000000
   30  CL 2 YY   -0.000000  -0.009335   0.000239  -0.000000  -0.000000
   31  CL 2 ZZ   -0.000000   0.026474   0.002999  -0.000000  -0.000000
   32  CL 2 XY   -0.000000  -0.000000  -0.000000  -0.000000  -0.000000
   33  CL 2 XZ   -0.000431  -0.000000  -0.000000   0.007787  -0.028924
   34  CL 2 YZ   -0.000124  -0.000000  -0.000000  -0.028924  -0.007787

                     11         12         13         14         15
                   -0.6785    -0.4922    -0.4922     0.0626     0.4910
                     A          A          A          A          A   
    1  F  1  S    0.031493   0.000000  -0.000000  -0.058695   0.021885
    2  F  1  S   -0.083868   0.000000  -0.000000   0.057442  -0.022564
    3  F  1  X    0.000000   0.130748  -0.224767  -0.000000   0.000000
    4  F  1  Y    0.000000  -0.224767  -0.130748  -0.000000   0.000000
    5  F  1  Z    0.481485   0.000000  -0.000000   0.374278   0.070133
    6  F  1  S   -0.088407   0.000000  -0.000000   0.531149  -0.372480
    7  F  1  X    0.000000   0.105466  -0.181306  -0.000000   0.000000
    8  F  1  Y    0.000000  -0.181306  -0.105466  -0.000000   0.000000
    9  F  1  Z    0.376825   0.000000  -0.000000   0.454753  -0.165845
   10  F  1 XX   -0.012752   0.000000  -0.000000  -0.030616   0.026206
   11  F  1 YY   -0.012752   0.000000  -0.000000  -0.030616   0.026206
   12  F  1 ZZ    0.040986   0.000000  -0.000000  -0.023786  -0.060333
   13  F  1 XY    0.000000   0.000000  -0.000000  -0.000000   0.000000
   14  F  1 XZ    0.000000  -0.000755   0.001298  -0.000000   0.000000
   15  F  1 YZ    0.000000   0.001298   0.000755  -0.000000   0.000000
   16  CL 2  S   -0.020313   0.000000  -0.000000  -0.019623  -0.067503
   17  CL 2  S    0.096286   0.000000  -0.000000   0.090918   0.073523
   18  CL 2  X    0.000000   0.138613  -0.238288  -0.000000   0.000000
   19  CL 2  Y    0.000000  -0.238288  -0.138613  -0.000000   0.000000
   20  CL 2  Z    0.172111   0.000000  -0.000000  -0.207423   0.015320
   21  CL 2  S   -0.202451   0.000000  -0.000000  -0.203839  -1.386919
   22  CL 2  X    0.000000  -0.367938   0.632519  -0.000000   0.000000
   23  CL 2  Y    0.000000   0.632519   0.367938  -0.000000   0.000000
   24  CL 2  Z   -0.424229   0.000000  -0.000000   0.533869  -0.038809
   25  CL 2  S   -0.187747   0.000000  -0.000000  -0.216246   1.912507
   26  CL 2  X    0.000000  -0.182974   0.314549  -0.000000   0.000000
   27  CL 2  Y    0.000000   0.314549   0.182974  -0.000000   0.000000
   28  CL 2  Z   -0.103411   0.000000  -0.000000   0.704945  -0.230543
   29  CL 2 XX   -0.021740   0.000000  -0.000000  -0.045990  -0.077887
   30  CL 2 YY   -0.021740   0.000000  -0.000000  -0.045990  -0.077887
   31  CL 2 ZZ    0.066196   0.000000  -0.000000   0.091756  -0.198600
   32  CL 2 XY    0.000000   0.000000  -0.000000  -0.000000   0.000000
   33  CL 2 XZ    0.000000  -0.007066   0.012147  -0.000000   0.000000
   34  CL 2 YZ    0.000000   0.012147   0.007066  -0.000000   0.000000

                     16         17         18         19         20
                    0.5824     0.5967     0.5967     1.0146     1.0146
                     A          A          A          A          A   
    1  F  1  S   -0.018623  -0.000000  -0.000000  -0.000000   0.000000
    2  F  1  S   -0.145325  -0.000000  -0.000000  -0.000000   0.000000
    3  F  1  X    0.000000   0.009361  -0.045587   0.284436   0.132138
    4  F  1  Y    0.000000  -0.045587  -0.009361  -0.132138   0.284436
    5  F  1  Z   -0.219069  -0.000000  -0.000000  -0.000000   0.000000
    6  F  1  S    0.703803  -0.000000  -0.000000  -0.000000   0.000000
    7  F  1  X    0.000000   0.022200  -0.108117  -0.198173  -0.092063
    8  F  1  Y    0.000000  -0.108117  -0.022200   0.092063  -0.198173
    9  F  1  Z    0.086134  -0.000000  -0.000000  -0.000000   0.000000
   10  F  1 XX   -0.101031  -0.000000  -0.000000  -0.000000   0.000000
   11  F  1 YY   -0.101031  -0.000000  -0.000000  -0.000000   0.000000
   12  F  1 ZZ    0.016969  -0.000000  -0.000000  -0.000000   0.000000
   13  F  1 XY    0.000000  -0.000000  -0.000000  -0.000000   0.000000
   14  F  1 XZ    0.000000   0.006466  -0.031489  -0.153859  -0.071477
   15  F  1 YZ    0.000000  -0.031489  -0.006466   0.071477  -0.153859
   16  CL 2  S   -0.002219  -0.000000  -0.000000  -0.000000   0.000000
   17  CL 2  S    0.015155  -0.000000  -0.000000  -0.000000   0.000000
   18  CL 2  X    0.000000  -0.057799   0.281483  -0.019303  -0.008967
   19  CL 2  Y    0.000000   0.281483   0.057799   0.008967  -0.019303
   20  CL 2  Z    0.298985  -0.000000  -0.000000  -0.000000   0.000000
   21  CL 2  S   -0.006643  -0.000000  -0.000000  -0.000000   0.000000
   22  CL 2  X    0.000000   0.228668  -1.113617   0.070551   0.032775
   23  CL 2  Y    0.000000  -1.113617  -0.228668  -0.032775   0.070551
   24  CL 2  Z   -1.146823  -0.000000  -0.000000  -0.000000   0.000000
   25  CL 2  S   -0.112962  -0.000000  -0.000000  -0.000000   0.000000
   26  CL 2  X    0.000000  -0.256583   1.249564  -0.023985  -0.011142
   27  CL 2  Y    0.000000   1.249564   0.256583   0.011142  -0.023985
   28  CL 2  Z    1.383957  -0.000000  -0.000000  -0.000000   0.000000
   29  CL 2 XX   -0.030625  -0.000000  -0.000000  -0.000000   0.000000
   30  CL 2 YY   -0.030625  -0.000000  -0.000000  -0.000000   0.000000
   31  CL 2 ZZ    0.039038  -0.000000  -0.000000  -0.000000   0.000000
   32  CL 2 XY    0.000000  -0.000000  -0.000000  -0.000000   0.000000
   33  CL 2 XZ    0.000000  -0.010840   0.052793   0.814282   0.378284
   34  CL 2 YZ    0.000000   0.052793   0.010840  -0.378284   0.814282

                     21         22         23         24         25
                    1.0871     1.0871     1.1366     1.4298     1.5576
                     A          A          A          A          A   
    1  F  1  S   -0.000000   0.000000  -0.031670  -0.104529  -0.000000
    2  F  1  S   -0.000000   0.000000  -1.146117  -1.190900  -0.000000
    3  F  1  X   -0.000000   0.000000  -0.000000  -0.000000  -0.082939
    4  F  1  Y   -0.000000   0.000000  -0.000000  -0.000000  -0.879980
    5  F  1  Z   -0.000000   0.000000   0.007210   0.685530  -0.000000
    6  F  1  S   -0.000000   0.000000   2.013816   2.801778  -0.000000
    7  F  1  X   -0.000000   0.000000  -0.000000  -0.000000   0.101744
    8  F  1  Y   -0.000000   0.000000  -0.000000  -0.000000   1.079493
    9  F  1  Z   -0.000000   0.000000  -0.216045  -0.462880  -0.000000
   10  F  1 XX   -0.039449  -0.000000  -0.526141  -0.585586  -0.000000
   11  F  1 YY    0.039449   0.000000  -0.526141  -0.585586  -0.000000
   12  F  1 ZZ   -0.000000   0.000000  -0.427152  -0.624909  -0.000000
   13  F  1 XY   -0.000000   0.045551  -0.000000  -0.000000  -0.000000
   14  F  1 XZ   -0.000000   0.000000  -0.000000  -0.000000  -0.014621
   15  F  1 YZ   -0.000000   0.000000  -0.000000  -0.000000  -0.155131
   16  CL 2  S   -0.000000   0.000000  -0.003081   0.012136  -0.000000
   17  CL 2  S   -0.000000   0.000000   0.004674   0.011822  -0.000000
   18  CL 2  X   -0.000000   0.000000  -0.000000  -0.000000  -0.001007
   19  CL 2  Y   -0.000000   0.000000  -0.000000  -0.000000  -0.010683
   20  CL 2  Z   -0.000000   0.000000  -0.022684   0.045190  -0.000000
   21  CL 2  S   -0.000000   0.000000  -0.068009   0.328559  -0.000000
   22  CL 2  X   -0.000000   0.000000  -0.000000  -0.000000   0.005841
   23  CL 2  Y   -0.000000   0.000000  -0.000000  -0.000000   0.061969
   24  CL 2  Z   -0.000000   0.000000   0.118175  -0.234105  -0.000000
   25  CL 2  S   -0.000000   0.000000   0.015114  -0.606173  -0.000000
   26  CL 2  X   -0.000000   0.000000  -0.000000  -0.000000  -0.023377
   27  CL 2  Y   -0.000000   0.000000  -0.000000  -0.000000  -0.248032
   28  CL 2  Z   -0.000000   0.000000  -0.057764   0.576046  -0.000000
   29  CL 2 XX   -0.864259  -0.000000  -0.388361   0.279105  -0.000000
   30  CL 2 YY    0.864259   0.000000  -0.388361   0.279105  -0.000000
   31  CL 2 ZZ   -0.000000   0.000000   0.756737  -0.461124  -0.000000
   32  CL 2 XY   -0.000000   0.997960  -0.000000  -0.000000  -0.000000
   33  CL 2 XZ   -0.000000   0.000000  -0.000000  -0.000000   0.030171
   34  CL 2 YZ   -0.000000   0.000000  -0.000000  -0.000000   0.320108

                     26         27         28         29         30
                    1.5576     1.8699     2.1160     2.1160     2.2162
                     A          A          A          A          A   
    1  F  1  S    0.000000  -0.093707   0.000000  -0.000000   0.000000
    2  F  1  S    0.000000  -1.289037   0.000000  -0.000000   0.000000
    3  F  1  X   -0.879980   0.000000   0.000000  -0.000000   0.051252
    4  F  1  Y    0.082939   0.000000   0.000000  -0.000000  -0.115397
    5  F  1  Z    0.000000  -0.570639   0.000000  -0.000000   0.000000
    6  F  1  S    0.000000   2.947489   0.000000  -0.000000   0.000000
    7  F  1  X    1.079493   0.000000   0.000000  -0.000000  -0.077061
    8  F  1  Y   -0.101744   0.000000   0.000000  -0.000000   0.173506
    9  F  1  Z    0.000000   1.071144   0.000000  -0.000000   0.000000
   10  F  1 XX    0.000000  -0.276527  -0.865337  -0.000011   0.000000
   11  F  1 YY    0.000000  -0.276527   0.865337   0.000011   0.000000
   12  F  1 ZZ    0.000000  -1.075362   0.000000  -0.000000   0.000000
   13  F  1 XY    0.000000   0.000000  -0.000013   0.999205   0.000000
   14  F  1 XZ   -0.155131   0.000000   0.000000  -0.000000  -0.402851
   15  F  1 YZ    0.014621   0.000000   0.000000  -0.000000   0.907044
   16  CL 2  S    0.000000   0.008040   0.000000  -0.000000   0.000000
   17  CL 2  S    0.000000   0.020183   0.000000  -0.000000   0.000000
   18  CL 2  X   -0.010683   0.000000   0.000000  -0.000000  -0.010150
   19  CL 2  Y    0.001007   0.000000   0.000000  -0.000000   0.022853
   20  CL 2  Z    0.000000  -0.005622   0.000000  -0.000000   0.000000
   21  CL 2  S    0.000000   0.294638   0.000000  -0.000000   0.000000
   22  CL 2  X    0.061969   0.000000   0.000000  -0.000000   0.026046
   23  CL 2  Y   -0.005841   0.000000   0.000000  -0.000000  -0.058645
   24  CL 2  Z    0.000000   0.074109   0.000000  -0.000000   0.000000
   25  CL 2  S    0.000000  -0.869155   0.000000  -0.000000   0.000000
   26  CL 2  X   -0.248032   0.000000   0.000000  -0.000000   0.046884
   27  CL 2  Y    0.023377   0.000000   0.000000  -0.000000  -0.105562
   28  CL 2  Z    0.000000   0.696984   0.000000  -0.000000   0.000000
   29  CL 2 XX    0.000000   0.133504   0.058487   0.000001   0.000000
   30  CL 2 YY    0.000000   0.133504  -0.058487  -0.000001   0.000000
   31  CL 2 ZZ    0.000000  -0.335484   0.000000  -0.000000   0.000000
   32  CL 2 XY    0.000000   0.000000   0.000001  -0.067535   0.000000
   33  CL 2 XZ    0.320108   0.000000   0.000000  -0.000000  -0.149551
   34  CL 2 YZ   -0.030171   0.000000   0.000000  -0.000000   0.336722

                     31         32         33         34
                    2.2162     2.8281     4.1229     4.6748
                     A          A          A          A   
    1  F  1  S    0.000000  -0.014857  -0.591531   0.027894
    2  F  1  S    0.000000  -0.963583  -1.309607  -0.092858
    3  F  1  X   -0.115397   0.000000  -0.000000  -0.000000
    4  F  1  Y   -0.051252   0.000000  -0.000000  -0.000000
    5  F  1  Z    0.000000  -0.411683  -0.220397  -0.067990
    6  F  1  S    0.000000   1.763609   6.482846  -0.127153
    7  F  1  X    0.173506   0.000000  -0.000000  -0.000000
    8  F  1  Y    0.077061   0.000000  -0.000000  -0.000000
    9  F  1  Z    0.000000   1.043630   0.648325   0.199421
   10  F  1 XX    0.000000  -0.627125  -2.430809  -0.002582
   11  F  1 YY    0.000000  -0.627125  -2.430809  -0.002582
   12  F  1 ZZ    0.000000   0.800907  -2.063286   0.355777
   13  F  1 XY    0.000000   0.000000  -0.000000  -0.000000
   14  F  1 XZ    0.907044   0.000000  -0.000000  -0.000000
   15  F  1 YZ    0.402851   0.000000  -0.000000  -0.000000
   16  CL 2  S    0.000000  -0.035063   0.010617   0.167009
   17  CL 2  S    0.000000   0.173393  -0.021940  -0.784530
   18  CL 2  X    0.022853   0.000000  -0.000000  -0.000000
   19  CL 2  Y    0.010150   0.000000  -0.000000  -0.000000
   20  CL 2  Z    0.000000  -0.164030  -0.018639  -0.036970
   21  CL 2  S    0.000000  -0.715358   0.380280   5.507095
   22  CL 2  X   -0.058645   0.000000  -0.000000  -0.000000
   23  CL 2  Y   -0.026046   0.000000  -0.000000  -0.000000
   24  CL 2  Z    0.000000   0.697662   0.187873   0.158077
   25  CL 2  S    0.000000  -0.521760  -0.705128   0.024326
   26  CL 2  X   -0.105562   0.000000  -0.000000  -0.000000
   27  CL 2  Y   -0.046884   0.000000  -0.000000  -0.000000
   28  CL 2  Z    0.000000   0.295215   0.547502  -0.009284
   29  CL 2 XX    0.000000   0.551512  -0.042105  -2.401916
   30  CL 2 YY    0.000000   0.551512  -0.042105  -2.401916
   31  CL 2 ZZ    0.000000  -0.489745  -0.333157  -2.581668
   32  CL 2 XY    0.000000   0.000000  -0.000000  -0.000000
   33  CL 2 XZ    0.336722   0.000000  -0.000000  -0.000000
   34  CL 2 YZ    0.149551   0.000000  -0.000000  -0.000000

 LZ VALUE ANALYSIS FOR THE MOS
 ----------------------------------------
 MO     1 (    1) HAS LZ(WEIGHT)= 0.00(100.0%) 
 MO     2 (    2) HAS LZ(WEIGHT)= 0.00(100.0%) 
 MO     3 (    3) HAS LZ(WEIGHT)= 0.00(100.0%) 
 MO     4 (    4) HAS LZ(WEIGHT)= 0.00(100.0%) 
 MO     5 (    5) HAS LZ(WEIGHT)=-1.00( 50.0%)  1.00( 50.0%) 
 MO     6 (    5) HAS LZ(WEIGHT)=-1.00( 50.0%)  1.00( 50.0%) 
 MO     7 (    6) HAS LZ(WEIGHT)= 0.00(100.0%) 
 MO     8 (    7) HAS LZ(WEIGHT)= 0.00(100.0%) 
 MO     9 (    8) HAS LZ(WEIGHT)=-1.00( 50.0%)  1.00( 50.0%) 
 MO    10 (    8) HAS LZ(WEIGHT)=-1.00( 50.0%)  1.00( 50.0%) 
 MO    11 (    9) HAS LZ(WEIGHT)= 0.00(100.0%) 
 MO    12 (   10) HAS LZ(WEIGHT)=-1.00( 50.0%)  1.00( 50.0%) 
 MO    13 (   10) HAS LZ(WEIGHT)=-1.00( 50.0%)  1.00( 50.0%) 
 MO    14 (   11) HAS LZ(WEIGHT)= 0.00(100.0%) 
 MO    15 (   12) HAS LZ(WEIGHT)= 0.00(100.0%) 
 MO    16 (   13) HAS LZ(WEIGHT)= 0.00(100.0%) 
 MO    17 (   14) HAS LZ(WEIGHT)=-1.00( 50.0%)  1.00( 50.0%) 
 MO    18 (   14) HAS LZ(WEIGHT)=-1.00( 50.0%)  1.00( 50.0%) 
 MO    19 (   15) HAS LZ(WEIGHT)=-1.00( 50.0%)  1.00( 50.0%) 
 MO    20 (   15) HAS LZ(WEIGHT)=-1.00( 50.0%)  1.00( 50.0%) 
 MO    21 (   16) HAS LZ(WEIGHT)=-2.00( 50.0%)  2.00( 50.0%) 
 MO    22 (   16) HAS LZ(WEIGHT)=-2.00( 50.0%)  2.00( 50.0%) 
 MO    23 (   17) HAS LZ(WEIGHT)= 0.00(100.0%) 
 MO    24 (   18) HAS LZ(WEIGHT)= 0.00(100.0%) 
 MO    25 (   19) HAS LZ(WEIGHT)=-1.00( 50.0%)  1.00( 50.0%) 
 MO    26 (   19) HAS LZ(WEIGHT)=-1.00( 50.0%)  1.00( 50.0%) 
 MO    27 (   20) HAS LZ(WEIGHT)= 0.00(100.0%) 
 MO    28 (   21) HAS LZ(WEIGHT)=-2.00( 50.0%)  2.00( 50.0%) 
 MO    29 (   21) HAS LZ(WEIGHT)=-2.00( 50.0%)  2.00( 50.0%) 
 MO    30 (   22) HAS LZ(WEIGHT)=-1.00( 50.0%)  1.00( 50.0%) 
 MO    31 (   22) HAS LZ(WEIGHT)=-1.00( 50.0%)  1.00( 50.0%) 
 MO    32 (   23) HAS LZ(WEIGHT)= 0.00(100.0%) 
 MO    33 (   24) HAS LZ(WEIGHT)= 0.00(100.0%) 
 MO    34 (   25) HAS LZ(WEIGHT)= 0.00(100.0%) 

  ----- BETA SET ----- 

          ------------
          EIGENVECTORS
          ------------

                      1          2          3          4          5
                 -104.9259   -26.3559   -10.6508    -8.1208    -8.1153
                     A          A          A          A          A   
    1  F  1  S    0.000012   0.994481  -0.000031   0.000020   0.000000
    2  F  1  S    0.000099   0.017564   0.000370  -0.000762   0.000000
    3  F  1  X   -0.000000   0.000000   0.000000  -0.000000  -0.000013
    4  F  1  Y   -0.000000   0.000000   0.000000  -0.000000   0.000044
    5  F  1  Z    0.000031   0.000867   0.000361  -0.000439   0.000000
    6  F  1  S   -0.000186   0.008219  -0.000288   0.001215   0.000000
    7  F  1  X   -0.000000   0.000000   0.000000  -0.000000  -0.000013
    8  F  1  Y   -0.000000   0.000000   0.000000  -0.000000   0.000046
    9  F  1  Z    0.000032  -0.000404  -0.001166   0.002664   0.000000
   10  F  1 XX    0.000068  -0.004476   0.000298  -0.000652   0.000000
   11  F  1 YY    0.000068  -0.004476   0.000298  -0.000652   0.000000
   12  F  1 ZZ   -0.000005  -0.004926  -0.000846   0.001362   0.000000
   13  F  1 XY   -0.000000   0.000000   0.000000  -0.000000   0.000000
   14  F  1 XZ   -0.000000   0.000000   0.000000  -0.000000   0.000093
   15  F  1 YZ   -0.000000   0.000000   0.000000  -0.000000  -0.000321
   16  CL 2  S    0.996124  -0.000002  -0.286804  -0.002059   0.000000
   17  CL 2  S    0.014625   0.000010   1.030844   0.007730   0.000000
   18  CL 2  X   -0.000000   0.000000   0.000000  -0.000000  -0.275406
   19  CL 2  Y   -0.000000   0.000000   0.000000  -0.000000   0.954944
   20  CL 2  Z   -0.000067   0.000112  -0.006435   0.992461   0.000000
   21  CL 2  S   -0.017681  -0.000371   0.024102  -0.002710   0.000000
   22  CL 2  X   -0.000000   0.000000   0.000000  -0.000000  -0.005366
   23  CL 2  Y   -0.000000   0.000000   0.000000  -0.000000   0.018605
   24  CL 2  Z    0.000019  -0.000371  -0.001448   0.024116   0.000000
   25  CL 2  S    0.001416  -0.000209  -0.005066  -0.000738   0.000000
   26  CL 2  X   -0.000000   0.000000   0.000000  -0.000000   0.001138
   27  CL 2  Y   -0.000000   0.000000   0.000000  -0.000000  -0.003945
   28  CL 2  Z   -0.000019   0.000189   0.000158  -0.004892   0.000000
   29  CL 2 XX    0.006259   0.000107  -0.001515   0.001405   0.000000
   30  CL 2 YY    0.006259   0.000107  -0.001515   0.001405   0.000000
   31  CL 2 ZZ    0.006285   0.000569  -0.000209  -0.000917   0.000000
   32  CL 2 XY   -0.000000   0.000000   0.000000  -0.000000   0.000000
   33  CL 2 XZ   -0.000000   0.000000   0.000000  -0.000000   0.000124
   34  CL 2 YZ   -0.000000   0.000000   0.000000  -0.000000  -0.000431

                      6          7          8          9         10
                   -8.1153    -1.6179    -1.1023    -0.7081    -0.7081
                     A          A          A          A          A   
    1  F  1  S   -0.000000  -0.222228   0.068686  -0.000000  -0.000000
    2  F  1  S   -0.000000   0.519530  -0.154525  -0.000000  -0.000000
    3  F  1  X    0.000044  -0.000000  -0.000000  -0.161447   0.599667
    4  F  1  Y    0.000013  -0.000000  -0.000000   0.599667   0.161447
    5  F  1  Z   -0.000000   0.045331   0.152925  -0.000000  -0.000000
    6  F  1  S   -0.000000   0.450371  -0.206928  -0.000000  -0.000000
    7  F  1  X    0.000046  -0.000000  -0.000000  -0.112867   0.419225
    8  F  1  Y    0.000013  -0.000000  -0.000000   0.419225   0.112867
    9  F  1  Z   -0.000000   0.044217   0.091039  -0.000000  -0.000000
   10  F  1 XX   -0.000000   0.019707  -0.005254  -0.000000  -0.000000
   11  F  1 YY   -0.000000   0.019707  -0.005254  -0.000000  -0.000000
   12  F  1 ZZ   -0.000000   0.041883   0.016215  -0.000000  -0.000000
   13  F  1 XY   -0.000000  -0.000000  -0.000000  -0.000000  -0.000000
   14  F  1 XZ   -0.000321  -0.000000  -0.000000  -0.006353   0.023597
   15  F  1 YZ   -0.000093  -0.000000  -0.000000   0.023597   0.006353
   16  CL 2  S   -0.000000   0.017364   0.078888  -0.000000  -0.000000
   17  CL 2  S   -0.000000  -0.078027  -0.356677  -0.000000  -0.000000
   18  CL 2  X    0.954944  -0.000000  -0.000000   0.023581  -0.087588
   19  CL 2  Y    0.275406  -0.000000  -0.000000  -0.087588  -0.023581
   20  CL 2  Z   -0.000000   0.038780  -0.003394  -0.000000  -0.000000
   21  CL 2  S   -0.000000   0.144281   0.733242  -0.000000  -0.000000
   22  CL 2  X    0.018605  -0.000000  -0.000000  -0.059738   0.221885
   23  CL 2  Y    0.005366  -0.000000  -0.000000   0.221885   0.059738
   24  CL 2  Z   -0.000000  -0.078116   0.011812  -0.000000  -0.000000
   25  CL 2  S   -0.000000   0.028927   0.287671  -0.000000  -0.000000
   26  CL 2  X   -0.003945  -0.000000  -0.000000  -0.026941   0.100068
   27  CL 2  Y   -0.001138  -0.000000  -0.000000   0.100068   0.026941
   28  CL 2  Z   -0.000000   0.001748   0.015358  -0.000000  -0.000000
   29  CL 2 XX   -0.000000  -0.009335   0.000239  -0.000000  -0.000000
   30  CL 2 YY   -0.000000  -0.009335   0.000239  -0.000000  -0.000000
   31  CL 2 ZZ   -0.000000   0.026474   0.002999  -0.000000  -0.000000
   32  CL 2 XY   -0.000000  -0.000000  -0.000000  -0.000000  -0.000000
   33  CL 2 XZ   -0.000431  -0.000000  -0.000000   0.007787  -0.028924
   34  CL 2 YZ   -0.000124  -0.000000  -0.000000  -0.028924  -0.007787

                     11         12         13         14         15
                   -0.6785    -0.4922    -0.4922     0.0626     0.4910
                     A          A          A          A          A   
    1  F  1  S    0.031493   0.000000  -0.000000  -0.058695   0.021885
    2  F  1  S   -0.083868   0.000000  -0.000000   0.057442  -0.022564
    3  F  1  X    0.000000   0.130748  -0.224767  -0.000000   0.000000
    4  F  1  Y    0.000000  -0.224767  -0.130748  -0.000000   0.000000
    5  F  1  Z    0.481485   0.000000  -0.000000   0.374278   0.070133
    6  F  1  S   -0.088407   0.000000  -0.000000   0.531149  -0.372480
    7  F  1  X    0.000000   0.105466  -0.181306  -0.000000   0.000000
    8  F  1  Y    0.000000  -0.181306  -0.105466  -0.000000   0.000000
    9  F  1  Z    0.376825   0.000000  -0.000000   0.454753  -0.165845
   10  F  1 XX   -0.012752   0.000000  -0.000000  -0.030616   0.026206
   11  F  1 YY   -0.012752   0.000000  -0.000000  -0.030616   0.026206
   12  F  1 ZZ    0.040986   0.000000  -0.000000  -0.023786  -0.060333
   13  F  1 XY    0.000000   0.000000  -0.000000  -0.000000   0.000000
   14  F  1 XZ    0.000000  -0.000755   0.001298  -0.000000   0.000000
   15  F  1 YZ    0.000000   0.001298   0.000755  -0.000000   0.000000
   16  CL 2  S   -0.020313   0.000000  -0.000000  -0.019623  -0.067503
   17  CL 2  S    0.096286   0.000000  -0.000000   0.090918   0.073523
   18  CL 2  X    0.000000   0.138613  -0.238288  -0.000000   0.000000
   19  CL 2  Y    0.000000  -0.238288  -0.138613  -0.000000   0.000000
   20  CL 2  Z    0.172111   0.000000  -0.000000  -0.207423   0.015320
   21  CL 2  S   -0.202451   0.000000  -0.000000  -0.203839  -1.386919
   22  CL 2  X    0.000000  -0.367938   0.632519  -0.000000   0.000000
   23  CL 2  Y    0.000000   0.632519   0.367938  -0.000000   0.000000
   24  CL 2  Z   -0.424229   0.000000  -0.000000   0.533869  -0.038809
   25  CL 2  S   -0.187747   0.000000  -0.000000  -0.216246   1.912507
   26  CL 2  X    0.000000  -0.182974   0.314549  -0.000000   0.000000
   27  CL 2  Y    0.000000   0.314549   0.182974  -0.000000   0.000000
   28  CL 2  Z   -0.103411   0.000000  -0.000000   0.704945  -0.230543
   29  CL 2 XX   -0.021740   0.000000  -0.000000  -0.045990  -0.077887
   30  CL 2 YY   -0.021740   0.000000  -0.000000  -0.045990  -0.077887
   31  CL 2 ZZ    0.066196   0.000000  -0.000000   0.091756  -0.198600
   32  CL 2 XY    0.000000   0.000000  -0.000000  -0.000000   0.000000
   33  CL 2 XZ    0.000000  -0.007066   0.012147  -0.000000   0.000000
   34  CL 2 YZ    0.000000   0.012147   0.007066  -0.000000   0.000000

                     16         17         18         19         20
                    0.5824     0.5967     0.5967     1.0146     1.0146
                     A          A          A          A          A   
    1  F  1  S   -0.018623  -0.000000  -0.000000  -0.000000   0.000000
    2  F  1  S   -0.145325  -0.000000  -0.000000  -0.000000   0.000000
    3  F  1  X    0.000000   0.009361  -0.045587   0.284436   0.132138
    4  F  1  Y    0.000000  -0.045587  -0.009361  -0.132138   0.284436
    5  F  1  Z   -0.219069  -0.000000  -0.000000  -0.000000   0.000000
    6  F  1  S    0.703803  -0.000000  -0.000000  -0.000000   0.000000
    7  F  1  X    0.000000   0.022200  -0.108117  -0.198173  -0.092063
    8  F  1  Y    0.000000  -0.108117  -0.022200   0.092063  -0.198173
    9  F  1  Z    0.086134  -0.000000  -0.000000  -0.000000   0.000000
   10  F  1 XX   -0.101031  -0.000000  -0.000000  -0.000000   0.000000
   11  F  1 YY   -0.101031  -0.000000  -0.000000  -0.000000   0.000000
   12  F  1 ZZ    0.016969  -0.000000  -0.000000  -0.000000   0.000000
   13  F  1 XY    0.000000  -0.000000  -0.000000  -0.000000   0.000000
   14  F  1 XZ    0.000000   0.006466  -0.031489  -0.153859  -0.071477
   15  F  1 YZ    0.000000  -0.031489  -0.006466   0.071477  -0.153859
   16  CL 2  S   -0.002219  -0.000000  -0.000000  -0.000000   0.000000
   17  CL 2  S    0.015155  -0.000000  -0.000000  -0.000000   0.000000
   18  CL 2  X    0.000000  -0.057799   0.281483  -0.019303  -0.008967
   19  CL 2  Y    0.000000   0.281483   0.057799   0.008967  -0.019303
   20  CL 2  Z    0.298985  -0.000000  -0.000000  -0.000000   0.000000
   21  CL 2  S   -0.006643  -0.000000  -0.000000  -0.000000   0.000000
   22  CL 2  X    0.000000   0.228668  -1.113617   0.070551   0.032775
   23  CL 2  Y    0.000000  -1.113617  -0.228668  -0.032775   0.070551
   24  CL 2  Z   -1.146823  -0.000000  -0.000000  -0.000000   0.000000
   25  CL 2  S   -0.112962  -0.000000  -0.000000  -0.000000   0.000000
   26  CL 2  X    0.000000  -0.256583   1.249564  -0.023985  -0.011142
   27  CL 2  Y    0.000000   1.249564   0.256583   0.011142  -0.023985
   28  CL 2  Z    1.383957  -0.000000  -0.000000  -0.000000   0.000000
   29  CL 2 XX   -0.030625  -0.000000  -0.000000  -0.000000   0.000000
   30  CL 2 YY   -0.030625  -0.000000  -0.000000  -0.000000   0.000000
   31  CL 2 ZZ    0.039038  -0.000000  -0.000000  -0.000000   0.000000
   32  CL 2 XY    0.000000  -0.000000  -0.000000  -0.000000   0.000000
   33  CL 2 XZ    0.000000  -0.010840   0.052793   0.814282   0.378284
   34  CL 2 YZ    0.000000   0.052793   0.010840  -0.378284   0.814282

                     21         22         23         24         25
                    1.0871     1.0871     1.1366     1.4298     1.5576
                     A          A          A          A          A   
    1  F  1  S   -0.000000   0.000000  -0.031670  -0.104529  -0.000000
    2  F  1  S   -0.000000   0.000000  -1.146117  -1.190900  -0.000000
    3  F  1  X   -0.000000   0.000000  -0.000000  -0.000000  -0.082939
    4  F  1  Y   -0.000000   0.000000  -0.000000  -0.000000  -0.879980
    5  F  1  Z   -0.000000   0.000000   0.007210   0.685530  -0.000000
    6  F  1  S   -0.000000   0.000000   2.013816   2.801778  -0.000000
    7  F  1  X   -0.000000   0.000000  -0.000000  -0.000000   0.101744
    8  F  1  Y   -0.000000   0.000000  -0.000000  -0.000000   1.079493
    9  F  1  Z   -0.000000   0.000000  -0.216045  -0.462880  -0.000000
   10  F  1 XX   -0.039449  -0.000000  -0.526141  -0.585586  -0.000000
   11  F  1 YY    0.039449   0.000000  -0.526141  -0.585586  -0.000000
   12  F  1 ZZ   -0.000000   0.000000  -0.427152  -0.624909  -0.000000
   13  F  1 XY   -0.000000   0.045551  -0.000000  -0.000000  -0.000000
   14  F  1 XZ   -0.000000   0.000000  -0.000000  -0.000000  -0.014621
   15  F  1 YZ   -0.000000   0.000000  -0.000000  -0.000000  -0.155131
   16  CL 2  S   -0.000000   0.000000  -0.003081   0.012136  -0.000000
   17  CL 2  S   -0.000000   0.000000   0.004674   0.011822  -0.000000
   18  CL 2  X   -0.000000   0.000000  -0.000000  -0.000000  -0.001007
   19  CL 2  Y   -0.000000   0.000000  -0.000000  -0.000000  -0.010683
   20  CL 2  Z   -0.000000   0.000000  -0.022684   0.045190  -0.000000
   21  CL 2  S   -0.000000   0.000000  -0.068009   0.328559  -0.000000
   22  CL 2  X   -0.000000   0.000000  -0.000000  -0.000000   0.005841
   23  CL 2  Y   -0.000000   0.000000  -0.000000  -0.000000   0.061969
   24  CL 2  Z   -0.000000   0.000000   0.118175  -0.234105  -0.000000
   25  CL 2  S   -0.000000   0.000000   0.015114  -0.606173  -0.000000
   26  CL 2  X   -0.000000   0.000000  -0.000000  -0.000000  -0.023377
   27  CL 2  Y   -0.000000   0.000000  -0.000000  -0.000000  -0.248032
   28  CL 2  Z   -0.000000   0.000000  -0.057764   0.576046  -0.000000
   29  CL 2 XX   -0.864259  -0.000000  -0.388361   0.279105  -0.000000
   30  CL 2 YY    0.864259   0.000000  -0.388361   0.279105  -0.000000
   31  CL 2 ZZ   -0.000000   0.000000   0.756737  -0.461124  -0.000000
   32  CL 2 XY   -0.000000   0.997960  -0.000000  -0.000000  -0.000000
   33  CL 2 XZ   -0.000000   0.000000  -0.000000  -0.000000   0.030171
   34  CL 2 YZ   -0.000000   0.000000  -0.000000  -0.000000   0.320108

                     26         27         28         29         30
                    1.5576     1.8699     2.1160     2.1160     2.2162
                     A          A          A          A          A   
    1  F  1  S    0.000000  -0.093707   0.000000  -0.000000   0.000000
    2  F  1  S    0.000000  -1.289037   0.000000  -0.000000   0.000000
    3  F  1  X   -0.879980   0.000000   0.000000  -0.000000   0.051252
    4  F  1  Y    0.082939   0.000000   0.000000  -0.000000  -0.115397
    5  F  1  Z    0.000000  -0.570639   0.000000  -0.000000   0.000000
    6  F  1  S    0.000000   2.947489   0.000000  -0.000000   0.000000
    7  F  1  X    1.079493   0.000000   0.000000  -0.000000  -0.077061
    8  F  1  Y   -0.101744   0.000000   0.000000  -0.000000   0.173506
    9  F  1  Z    0.000000   1.071144   0.000000  -0.000000   0.000000
   10  F  1 XX    0.000000  -0.276527  -0.865337  -0.000011   0.000000
   11  F  1 YY    0.000000  -0.276527   0.865337   0.000011   0.000000
   12  F  1 ZZ    0.000000  -1.075362   0.000000  -0.000000   0.000000
   13  F  1 XY    0.000000   0.000000  -0.000013   0.999205   0.000000
   14  F  1 XZ   -0.155131   0.000000   0.000000  -0.000000  -0.402851
   15  F  1 YZ    0.014621   0.000000   0.000000  -0.000000   0.907044
   16  CL 2  S    0.000000   0.008040   0.000000  -0.000000   0.000000
   17  CL 2  S    0.000000   0.020183   0.000000  -0.000000   0.000000
   18  CL 2  X   -0.010683   0.000000   0.000000  -0.000000  -0.010150
   19  CL 2  Y    0.001007   0.000000   0.000000  -0.000000   0.022853
   20  CL 2  Z    0.000000  -0.005622   0.000000  -0.000000   0.000000
   21  CL 2  S    0.000000   0.294638   0.000000  -0.000000   0.000000
   22  CL 2  X    0.061969   0.000000   0.000000  -0.000000   0.026046
   23  CL 2  Y   -0.005841   0.000000   0.000000  -0.000000  -0.058645
   24  CL 2  Z    0.000000   0.074109   0.000000  -0.000000   0.000000
   25  CL 2  S    0.000000  -0.869155   0.000000  -0.000000   0.000000
   26  CL 2  X   -0.248032   0.000000   0.000000  -0.000000   0.046884
   27  CL 2  Y    0.023377   0.000000   0.000000  -0.000000  -0.105562
   28  CL 2  Z    0.000000   0.696984   0.000000  -0.000000   0.000000
   29  CL 2 XX    0.000000   0.133504   0.058487   0.000001   0.000000
   30  CL 2 YY    0.000000   0.133504  -0.058487  -0.000001   0.000000
   31  CL 2 ZZ    0.000000  -0.335484   0.000000  -0.000000   0.000000
   32  CL 2 XY    0.000000   0.000000   0.000001  -0.067535   0.000000
   33  CL 2 XZ    0.320108   0.000000   0.000000  -0.000000  -0.149551
   34  CL 2 YZ   -0.030171   0.000000   0.000000  -0.000000   0.336722

                     31         32         33         34
                    2.2162     2.8281     4.1229     4.6748
                     A          A          A          A   
    1  F  1  S    0.000000  -0.014857  -0.591531   0.027894
    2  F  1  S    0.000000  -0.963583  -1.309607  -0.092858
    3  F  1  X   -0.115397   0.000000  -0.000000  -0.000000
    4  F  1  Y   -0.051252   0.000000  -0.000000  -0.000000
    5  F  1  Z    0.000000  -0.411683  -0.220397  -0.067990
    6  F  1  S    0.000000   1.763609   6.482846  -0.127153
    7  F  1  X    0.173506   0.000000  -0.000000  -0.000000
    8  F  1  Y    0.077061   0.000000  -0.000000  -0.000000
    9  F  1  Z    0.000000   1.043630   0.648325   0.199421
   10  F  1 XX    0.000000  -0.627125  -2.430809  -0.002582
   11  F  1 YY    0.000000  -0.627125  -2.430809  -0.002582
   12  F  1 ZZ    0.000000   0.800907  -2.063286   0.355777
   13  F  1 XY    0.000000   0.000000  -0.000000  -0.000000
   14  F  1 XZ    0.907044   0.000000  -0.000000  -0.000000
   15  F  1 YZ    0.402851   0.000000  -0.000000  -0.000000
   16  CL 2  S    0.000000  -0.035063   0.010617   0.167009
   17  CL 2  S    0.000000   0.173393  -0.021940  -0.784530
   18  CL 2  X    0.022853   0.000000  -0.000000  -0.000000
   19  CL 2  Y    0.010150   0.000000  -0.000000  -0.000000
   20  CL 2  Z    0.000000  -0.164030  -0.018639  -0.036970
   21  CL 2  S    0.000000  -0.715358   0.380280   5.507095
   22  CL 2  X   -0.058645   0.000000  -0.000000  -0.000000
   23  CL 2  Y   -0.026046   0.000000  -0.000000  -0.000000
   24  CL 2  Z    0.000000   0.697662   0.187873   0.158077
   25  CL 2  S    0.000000  -0.521760  -0.705128   0.024326
   26  CL 2  X   -0.105562   0.000000  -0.000000  -0.000000
   27  CL 2  Y   -0.046884   0.000000  -0.000000  -0.000000
   28  CL 2  Z    0.000000   0.295215   0.547502  -0.009284
   29  CL 2 XX    0.000000   0.551512  -0.042105  -2.401916
   30  CL 2 YY    0.000000   0.551512  -0.042105  -2.401916
   31  CL 2 ZZ    0.000000  -0.489745  -0.333157  -2.581668
   32  CL 2 XY    0.000000   0.000000  -0.000000  -0.000000
   33  CL 2 XZ    0.336722   0.000000  -0.000000  -0.000000
   34  CL 2 YZ    0.149551   0.000000  -0.000000  -0.000000
 ...... END OF UHF CALCULATION ......
 STEP CPU TIME =     0.01 TOTAL CPU TIME =          0.0 (      0.0 MIN)
 TOTAL WALL CLOCK TIME=          0.0 SECONDS, CPU UTILIZATION IS    97.52%

     ----------------------------------------------------------------
     PROPERTY VALUES FOR THE UHF   SELF-CONSISTENT FIELD WAVEFUNCTION
     ----------------------------------------------------------------

          -----------------
          ENERGY COMPONENTS
          -----------------

         WAVEFUNCTION NORMALIZATION =       1.0000000000

                ONE ELECTRON ENERGY =    -870.9515862247
                TWO ELECTRON ENERGY =     263.3927227031
           NUCLEAR REPULSION ENERGY =      48.7408500625
                                      ------------------
                       TOTAL ENERGY =    -558.8180134591

 ELECTRON-ELECTRON POTENTIAL ENERGY =     263.3927227031
  NUCLEUS-ELECTRON POTENTIAL ENERGY =   -1429.1943206352
   NUCLEUS-NUCLEUS POTENTIAL ENERGY =      48.7408500625
                                      ------------------
             TOTAL POTENTIAL ENERGY =   -1117.0607478696
               TOTAL KINETIC ENERGY =     558.2427344105
                 VIRIAL RATIO (V/T) =       2.0010305178

  ...... PI ENERGY ANALYSIS ......

 ENERGY ANALYSIS:
            FOCK ENERGY=   -344.1661421191
          BARE H ENERGY=   -870.9515862247
     ELECTRONIC ENERGY =   -607.5588641719
         KINETIC ENERGY=    558.2427344105
          N-N REPULSION=     48.7408500625
           TOTAL ENERGY=   -558.8180141094
        SIGMA PART(1+2)=   -463.1744703904
               (K,V1,2)=    452.9961874592  -1072.4409199611    156.2702621114
           PI PART(1+2)=   -144.3843937815
               (K,V1,2)=    105.2465469513   -356.7534006741    107.1224599414
  SIGMA SKELETON, ERROR=   -414.4336203279     -0.0000000000
             MIXED PART= 0.00000E+00 0.00000E+00 0.00000E+00 0.00000E+00
 ...... END OF PI ENERGY ANALYSIS ......

          ---------------------------------------
          MULLIKEN AND LOWDIN POPULATION ANALYSES
          ---------------------------------------

     ATOMIC MULLIKEN POPULATION IN EACH MOLECULAR ORBITAL
        ALPHA ORBITALS

                      1          2          3          4          5

                  1.000000   1.000000   1.000000   1.000000   1.000000

    1            -0.000000   1.000010  -0.000105  -0.000181  -0.000001
    2             1.000000  -0.000010   1.000105   1.000181   1.000001

                      6          7          8          9         10

                  1.000000   1.000000   1.000000   1.000000   1.000000

    1            -0.000001   0.927018   0.143235   0.878309   0.878309
    2             1.000001   0.072982   0.856765   0.121691   0.121691

                     11         12         13

                  1.000000   1.000000   1.000000

    1             0.617572   0.117577   0.117577
    2             0.382428   0.882423   0.882423

     ATOMIC MULLIKEN POPULATION IN EACH MOLECULAR ORBITAL
         BETA ORBITALS

                      1          2          3          4          5

                  1.000000   1.000000   1.000000   1.000000   1.000000

    1            -0.000000   1.000010  -0.000105  -0.000181  -0.000001
    2             1.000000  -0.000010   1.000105   1.000181   1.000001

                      6          7          8          9         10

                  1.000000   1.000000   1.000000   1.000000   1.000000

    1            -0.000001   0.927018   0.143235   0.878309   0.878309
    2             1.000001   0.072982   0.856765   0.121691   0.121691

                     11         12         13

                  1.000000   1.000000   1.000000

    1             0.617572   0.117577   0.117577
    2             0.382428   0.882423   0.882423

     ATOMIC SPIN POPULATION (ALPHA MINUS BETA)
       ATOM         MULL.POP.                    LOW.POP.
    1 F             0.000000                     0.000000
    2 CL            0.000000                     0.000000


          ********* ALL ELECTRONS ********

               ----- POPULATIONS IN EACH AO -----
                             MULLIKEN      LOWDIN
              1  F  1  S      1.99554     1.97838
              2  F  1  S      0.99391     0.88417
              3  F  1  X      1.22608     1.19981
              4  F  1  Y      1.22608     1.19981
              5  F  1  Z      0.76194     0.72711
              6  F  1  S      0.89094     0.54408
              7  F  1  X      0.76236     0.79060
              8  F  1  Y      0.76236     0.79060
              9  F  1  Z      0.62132     0.66993
             10  F  1 XX      0.02675     0.16953
             11  F  1 YY      0.02675     0.16953
             12  F  1 ZZ      0.05795     0.19088
             13  F  1 XY      0.00000     0.00000
             14  F  1 XZ      0.00333     0.00812
             15  F  1 YZ      0.00333     0.00812
             16  CL 2  S      1.99891     1.99850
             17  CL 2  S      1.99867     1.98202
             18  CL 2  X      1.99568     1.97893
             19  CL 2  Y      1.99568     1.97893
             20  CL 2  Z      1.98855     1.94777
             21  CL 2  S      1.41877     0.66703
             22  CL 2  X      1.39333     1.29882
             23  CL 2  Y      1.39333     1.29882
             24  CL 2  Z      0.56662     0.53577
             25  CL 2  S      0.53096     0.49890
             26  CL 2  X      0.61154     0.71387
             27  CL 2  Y      0.61154     0.71387
             28  CL 2  Z      0.09383     0.22460
             29  CL 2 XX      0.00542     0.27465
             30  CL 2 YY      0.00542     0.27465
             31  CL 2 ZZ      0.01774     0.26250
             32  CL 2 XY      0.00000     0.00000
             33  CL 2 XZ      0.00768     0.00986
             34  CL 2 YZ      0.00768     0.00986

          ----- MULLIKEN ATOMIC OVERLAP POPULATIONS -----
          (OFF-DIAGONAL ELEMENTS NEED TO BE MULTIPLIED BY 2)

             1           2

    1    9.2795123
    2    0.0791247  16.5622382

          TOTAL MULLIKEN AND LOWDIN ATOMIC POPULATIONS
       ATOM         MULL.POP.    CHARGE          LOW.POP.     CHARGE
    1 F             9.358637   -0.358637         9.330673   -0.330673
    2 CL           16.641363    0.358637        16.669327    0.330673

          -------------------------------
          BOND ORDER AND VALENCE ANALYSIS     BOND ORDER THRESHOLD=0.050
          -------------------------------

                   BOND                       BOND                       BOND
  ATOM PAIR DIST  ORDER      ATOM PAIR DIST  ORDER      ATOM PAIR DIST  ORDER
    1   2  1.661  0.837

                       TOTAL       BONDED        FREE
      ATOM            VALENCE     VALENCE     VALENCE
    1 F                 0.837       0.837      -0.000
    2 CL                0.837       0.837      -0.000

          -----------------------------------------
          ATOMIC SPIN DENSITY AT THE NUCLEUS (A.U.)
          -----------------------------------------
                            SPIN DENS    ALPHA DENS     BETA DENS
    1  F            9.0     0.0000000     209.69560     209.69560
    2  CL          17.0     0.0000000    1511.79065    1511.79065

          ---------------------
          ELECTROSTATIC MOMENTS
          ---------------------

 POINT   1           X           Y           Z (BOHR)    CHARGE
                 0.000000    0.000000   -0.013124        0.00 (A.U.)
         DX          DY          DZ         /D/  (DEBYE)
     0.000000    0.000000    1.332569    1.332569
 ...... END OF PROPERTY EVALUATION ......
 STEP CPU TIME =     0.00 TOTAL CPU TIME =          0.0 (      0.0 MIN)
 TOTAL WALL CLOCK TIME=          0.0 SECONDS, CPU UTILIZATION IS    97.66%

 BEGINNING ONE ELECTRON GRADIENT...
 ..... END OF 1-ELECTRON GRADIENT ......
 STEP CPU TIME =     0.00 TOTAL CPU TIME =          0.0 (      0.0 MIN)
 TOTAL WALL CLOCK TIME=          0.0 SECONDS, CPU UTILIZATION IS    97.73%

          ----------------------
          GRADIENT OF THE ENERGY
          ----------------------

 THE MINIMUM MEMORY REQUIRED FOR THIS RUN IS      75631 WORDS.
 USING     990181 WORDS FOR 2E- DERIVATIVE INTEGRAL CONTRIBUTIONS.
 THE COARSE/FINE SCHWARZ SCREENINGS SKIPPED            0/           0 BLOCKS.
 THE NUMBER OF GRADIENT INTEGRAL BLOCKS COMPUTED WAS       836
 ...... END OF 2-ELECTRON GRADIENT ......
 STEP CPU TIME =     0.02 TOTAL CPU TIME =          0.0 (      0.0 MIN)
 TOTAL WALL CLOCK TIME=          0.0 SECONDS, CPU UTILIZATION IS    98.81%

          NSERCH=  0     ENERGY=    -558.8180135

                                 -----------------------
                                 GRADIENT (HARTREE/BOHR)
                                 -----------------------
        ATOM     ZNUC       DE/DX         DE/DY         DE/DZ
 --------------------------------------------------------------
    1  F            9.0     0.0000000     0.0000000    -0.0315421
    2  CL          17.0     0.0000000     0.0000000     0.0315421

          MAXIMUM GRADIENT = 0.0315421    RMS GRADIENT = 0.0182108

 NSERCH:   0  E=     -558.8180134591  GRAD. MAX=  0.0315421  R.M.S.=  0.0182108

          FORCE CONSTANT MATRIX NOT UPDATED --- TAKING FIRST STEP
          MIN SEARCH, CORRECT HESSIAN, TRYING PURE NR STEP
               NR STEP HAS LENGTH         =   0.073940
          RADIUS OF STEP TAKEN=   0.07394  CURRENT TRUST RADIUS=   0.30000

 BEGINNING GEOMETRY SEARCH POINT NSERCH=   1 ...

 COORDINATES OF ALL ATOMS ARE (ANGS)
   ATOM   CHARGE       X              Y              Z
 ------------------------------------------------------------
 F           9.0   0.0000000000   0.0000000000  -1.0556205305
 CL         17.0   0.0000000000   0.0000000000   0.5501595305

          INTERNUCLEAR DISTANCES (ANGS.)
          ------------------------------

                1 F          2 CL    

   1 F       0.0000000    1.6057801 *
   2 CL      1.6057801 *  0.0000000  

  * ... LESS THAN  3.000

 ...... END OF ONE-ELECTRON INTEGRALS ......
 STEP CPU TIME =     0.00 TOTAL CPU TIME =          0.0 (      0.0 MIN)
 TOTAL WALL CLOCK TIME=          0.0 SECONDS, CPU UTILIZATION IS    98.82%
 TOTAL NUMBER OF NONZERO TWO-ELECTRON INTEGRALS =               45669
          4 INTEGRAL RECORDS WERE STORED ON DISK FILE  8.
  ...... END OF TWO-ELECTRON INTEGRALS .....
 STEP CPU TIME =     0.00 TOTAL CPU TIME =          0.0 (      0.0 MIN)
 TOTAL WALL CLOCK TIME=          0.0 SECONDS, CPU UTILIZATION IS    98.84%

          ---------------------------
                  UHF SCF CALCULATION
          ---------------------------
     DENSITY MATRIX CONV=  5.00E-05

 ITER EX      TOTAL ENERGY        E CHANGE  DENSITY CHANGE    ORB. GRAD 
          ---------------START SECOND ORDER SCF---------------
   1  0     -558.8184746951  -558.8184746951   0.014920535   0.009773218
   2  1     -558.8193846632    -0.0009099680   0.006565941   0.002798474
   3  2     -558.8194709210    -0.0000862579   0.002873604   0.001833280
   4  3     -558.8194879254    -0.0000170043   0.000932727   0.000226359
   5  4     -558.8194887885    -0.0000008631   0.000310178   0.000102671
   6  5     -558.8194889055    -0.0000001171   0.000024535   0.000014763
   7  6     -558.8194889077    -0.0000000021   0.000007354   0.000003245
   8  7     -558.8194889078    -0.0000000001   0.000000722   0.000000343

          -----------------
          DENSITY CONVERGED
          -----------------
     TIME TO FORM FOCK OPERATORS=       0.0 SECONDS (       0.0 SEC/ITER)
     TIME TO SOLVE SCF EQUATIONS=       0.0 SECONDS (       0.0 SEC/ITER)

 FINAL UHF ENERGY IS     -558.8194889078 AFTER   8 ITERATIONS

          --------------------
          SPIN SZ   =    0.000
          S-SQUARED =   -0.000
          --------------------

 LZ VALUE ANALYSIS FOR THE MOS
 ----------------------------------------
 MO     1 (    1) HAS LZ(WEIGHT)= 0.00(100.0%) 
 MO     2 (    2) HAS LZ(WEIGHT)= 0.00(100.0%) 
 MO     3 (    3) HAS LZ(WEIGHT)= 0.00(100.0%) 
 MO     4 (    4) HAS LZ(WEIGHT)= 0.00(100.0%) 
 MO     5 (    5) HAS LZ(WEIGHT)=-1.00( 50.0%)  1.00( 50.0%) 
 MO     6 (    5) HAS LZ(WEIGHT)=-1.00( 50.0%)  1.00( 50.0%) 
 MO     7 (    6) HAS LZ(WEIGHT)= 0.00(100.0%) 
 MO     8 (    7) HAS LZ(WEIGHT)= 0.00(100.0%) 
 MO     9 (    8) HAS LZ(WEIGHT)=-1.00( 50.0%)  1.00( 50.0%) 
 MO    10 (    8) HAS LZ(WEIGHT)=-1.00( 50.0%)  1.00( 50.0%) 
 MO    11 (    9) HAS LZ(WEIGHT)= 0.00(100.0%) 
 MO    12 (   10) HAS LZ(WEIGHT)=-1.00( 50.0%)  1.00( 50.0%) 
 MO    13 (   10) HAS LZ(WEIGHT)=-1.00( 50.0%)  1.00( 50.0%) 
 MO    14 (   11) HAS LZ(WEIGHT)= 0.00(100.0%) 
 MO    15 (   12) HAS LZ(WEIGHT)= 0.00(100.0%) 
 MO    16 (   13) HAS LZ(WEIGHT)= 0.00(100.0%) 
 MO    17 (   14) HAS LZ(WEIGHT)=-1.00( 50.0%)  1.00( 50.0%) 
 MO    18 (   14) HAS LZ(WEIGHT)=-1.00( 50.0%)  1.00( 50.0%) 
 MO    19 (   15) HAS LZ(WEIGHT)=-1.00( 50.0%)  1.00( 50.0%) 
 MO    20 (   15) HAS LZ(WEIGHT)=-1.00( 50.0%)  1.00( 50.0%) 
 MO    21 (   16) HAS LZ(WEIGHT)=-2.00( 50.0%)  2.00( 50.0%) 
 MO    22 (   16) HAS LZ(WEIGHT)=-2.00( 50.0%)  2.00( 50.0%) 
 MO    23 (   17) HAS LZ(WEIGHT)= 0.00(100.0%) 
 MO    24 (   18) HAS LZ(WEIGHT)= 0.00(100.0%) 
 MO    25 (   19) HAS LZ(WEIGHT)=-1.00( 50.0%)  1.00( 50.0%) 
 MO    26 (   19) HAS LZ(WEIGHT)=-1.00( 50.0%)  1.00( 50.0%) 
 MO    27 (   20) HAS LZ(WEIGHT)= 0.00(100.0%) 
 MO    28 (   21) HAS LZ(WEIGHT)=-2.00( 50.0%)  2.00( 50.0%) 
 MO    29 (   21) HAS LZ(WEIGHT)=-2.00( 50.0%)  2.00( 50.0%) 
 MO    30 (   22) HAS LZ(WEIGHT)=-1.00( 50.0%)  1.00( 50.0%) 
 MO    31 (   22) HAS LZ(WEIGHT)=-1.00( 50.0%)  1.00( 50.0%) 
 MO    32 (   23) HAS LZ(WEIGHT)= 0.00(100.0%) 
 MO    33 (   24) HAS LZ(WEIGHT)= 0.00(100.0%) 
 MO    34 (   25) HAS LZ(WEIGHT)= 0.00(100.0%) 

 LZ VALUE ANALYSIS FOR THE MOS
 ----------------------------------------
 MO     1 (    1) HAS LZ(WEIGHT)= 0.00(100.0%) 
 MO     2 (    2) HAS LZ(WEIGHT)= 0.00(100.0%) 
 MO     3 (    3) HAS LZ(WEIGHT)= 0.00(100.0%) 
 MO     4 (    4) HAS LZ(WEIGHT)= 0.00(100.0%) 
 MO     5 (    5) HAS LZ(WEIGHT)=-1.00( 50.0%)  1.00( 50.0%) 
 MO     6 (    5) HAS LZ(WEIGHT)=-1.00( 50.0%)  1.00( 50.0%) 
 MO     7 (    6) HAS LZ(WEIGHT)= 0.00(100.0%) 
 MO     8 (    7) HAS LZ(WEIGHT)= 0.00(100.0%) 
 MO     9 (    8) HAS LZ(WEIGHT)=-1.00( 50.0%)  1.00( 50.0%) 
 MO    10 (    8) HAS LZ(WEIGHT)=-1.00( 50.0%)  1.00( 50.0%) 
 MO    11 (    9) HAS LZ(WEIGHT)= 0.00(100.0%) 
 MO    12 (   10) HAS LZ(WEIGHT)=-1.00( 50.0%)  1.00( 50.0%) 
 MO    13 (   10) HAS LZ(WEIGHT)=-1.00( 50.0%)  1.00( 50.0%) 
 MO    14 (   11) HAS LZ(WEIGHT)= 0.00(100.0%) 
 MO    15 (   12) HAS LZ(WEIGHT)= 0.00(100.0%) 
 MO    16 (   13) HAS LZ(WEIGHT)= 0.00(100.0%) 
 MO    17 (   14) HAS LZ(WEIGHT)=-1.00( 50.0%)  1.00( 50.0%) 
 MO    18 (   14) HAS LZ(WEIGHT)=-1.00( 50.0%)  1.00( 50.0%) 
 MO    19 (   15) HAS LZ(WEIGHT)=-1.00( 50.0%)  1.00( 50.0%) 
 MO    20 (   15) HAS LZ(WEIGHT)=-1.00( 50.0%)  1.00( 50.0%) 
 MO    21 (   16) HAS LZ(WEIGHT)=-2.00( 50.0%)  2.00( 50.0%) 
 MO    22 (   16) HAS LZ(WEIGHT)=-2.00( 50.0%)  2.00( 50.0%) 
 MO    23 (   17) HAS LZ(WEIGHT)= 0.00(100.0%) 
 MO    24 (   18) HAS LZ(WEIGHT)= 0.00(100.0%) 
 MO    25 (   19) HAS LZ(WEIGHT)=-1.00( 50.0%)  1.00( 50.0%) 
 MO    26 (   19) HAS LZ(WEIGHT)=-1.00( 50.0%)  1.00( 50.0%) 
 MO    27 (   20) HAS LZ(WEIGHT)= 0.00(100.0%) 
 MO    28 (   21) HAS LZ(WEIGHT)=-2.00( 50.0%)  2.00( 50.0%) 
 MO    29 (   21) HAS LZ(WEIGHT)=-2.00( 50.0%)  2.00( 50.0%) 
 MO    30 (   22) HAS LZ(WEIGHT)=-1.00( 50.0%)  1.00( 50.0%) 
 MO    31 (   22) HAS LZ(WEIGHT)=-1.00( 50.0%)  1.00( 50.0%) 
 MO    32 (   23) HAS LZ(WEIGHT)= 0.00(100.0%) 
 MO    33 (   24) HAS LZ(WEIGHT)= 0.00(100.0%) 
 MO    34 (   25) HAS LZ(WEIGHT)= 0.00(100.0%) 
 ...... END OF UHF CALCULATION ......
 STEP CPU TIME =     0.00 TOTAL CPU TIME =          0.1 (      0.0 MIN)
 TOTAL WALL CLOCK TIME=          0.1 SECONDS, CPU UTILIZATION IS    98.90%
 ..... END OF 1-ELECTRON GRADIENT ......
 STEP CPU TIME =     0.00 TOTAL CPU TIME =          0.1 (      0.0 MIN)
 TOTAL WALL CLOCK TIME=          0.1 SECONDS, CPU UTILIZATION IS    98.92%
 ...... END OF 2-ELECTRON GRADIENT ......
 STEP CPU TIME =     0.02 TOTAL CPU TIME =          0.1 (      0.0 MIN)
 TOTAL WALL CLOCK TIME=          0.1 SECONDS, CPU UTILIZATION IS    99.23%

          NSERCH=  1     ENERGY=    -558.8194889

                                 -----------------------
                                 GRADIENT (HARTREE/BOHR)
                                 -----------------------
        ATOM     ZNUC       DE/DX         DE/DY         DE/DZ
 --------------------------------------------------------------
    1  F            9.0     0.0000000     0.0000000     0.0050950
    2  CL          17.0     0.0000000     0.0000000    -0.0050950

          MAXIMUM GRADIENT = 0.0050950    RMS GRADIENT = 0.0029416

 NSERCH:   1  E=     -558.8194889078  GRAD. MAX=  0.0050950  R.M.S.=  0.0029416

          HESSIAN UPDATED USING THE BFGS FORMULA
             ACTUAL ENERGY CHANGE WAS  -0.0014754486
          PREDICTED ENERGY CHANGE WAS  -0.0016491211 RATIO=  0.895
          MIN SEARCH, CORRECT HESSIAN, TRYING PURE NR STEP
               NR STEP HAS LENGTH         =   0.010283
          RADIUS OF STEP TAKEN=   0.01028  CURRENT TRUST RADIUS=   0.10457

 BEGINNING GEOMETRY SEARCH POINT NSERCH=   2 ...

 COORDINATES OF ALL ATOMS ARE (ANGS)
   ATOM   CHARGE       X              Y              Z
 ------------------------------------------------------------
 F           9.0   0.0000000000   0.0000000000  -1.0594680973
 CL         17.0   0.0000000000   0.0000000000   0.5540070973

          INTERNUCLEAR DISTANCES (ANGS.)
          ------------------------------

                1 F          2 CL    

   1 F       0.0000000    1.6134752 *
   2 CL      1.6134752 *  0.0000000  

  * ... LESS THAN  3.000

 ...... END OF ONE-ELECTRON INTEGRALS ......
 STEP CPU TIME =     0.00 TOTAL CPU TIME =          0.1 (      0.0 MIN)
 TOTAL WALL CLOCK TIME=          0.1 SECONDS, CPU UTILIZATION IS    99.23%
 TOTAL NUMBER OF NONZERO TWO-ELECTRON INTEGRALS =               45650
          4 INTEGRAL RECORDS WERE STORED ON DISK FILE  8.
  ...... END OF TWO-ELECTRON INTEGRALS .....
 STEP CPU TIME =     0.00 TOTAL CPU TIME =          0.1 (      0.0 MIN)
 TOTAL WALL CLOCK TIME=          0.1 SECONDS, CPU UTILIZATION IS    99.23%

          ---------------------------
                  UHF SCF CALCULATION
          ---------------------------
     DENSITY MATRIX CONV=  1.00E-05

 ITER EX      TOTAL ENERGY        E CHANGE  DENSITY CHANGE    ORB. GRAD 
          ---------------START SECOND ORDER SCF---------------
   1  0     -558.8194997359  -558.8194997359   0.002155341   0.001410464
   2  1     -558.8195186652    -0.0000189293   0.000925862   0.000391826
   3  2     -558.8195205701    -0.0000019049   0.000377353   0.000251111
   4  3     -558.8195208795    -0.0000003094   0.000134949   0.000034139
   5  4     -558.8195209006    -0.0000000211   0.000052724   0.000014599
   6  5     -558.8195209036    -0.0000000030   0.000004764   0.000002458
   7  6     -558.8195209036    -0.0000000001   0.000001377   0.000000568

          -----------------
          DENSITY CONVERGED
          -----------------
     TIME TO FORM FOCK OPERATORS=       0.0 SECONDS (       0.0 SEC/ITER)
     TIME TO SOLVE SCF EQUATIONS=       0.0 SECONDS (       0.0 SEC/ITER)

 FINAL UHF ENERGY IS     -558.8195209036 AFTER   7 ITERATIONS

          --------------------
          SPIN SZ   =    0.000
          S-SQUARED =    0.000
          --------------------

 LZ VALUE ANALYSIS FOR THE MOS
 ----------------------------------------
 MO     1 (    1) HAS LZ(WEIGHT)= 0.00(100.0%) 
 MO     2 (    2) HAS LZ(WEIGHT)= 0.00(100.0%) 
 MO     3 (    3) HAS LZ(WEIGHT)= 0.00(100.0%) 
 MO     4 (    4) HAS LZ(WEIGHT)= 0.00(100.0%) 
 MO     5 (    5) HAS LZ(WEIGHT)=-1.00( 50.0%)  1.00( 50.0%) 
 MO     6 (    5) HAS LZ(WEIGHT)=-1.00( 50.0%)  1.00( 50.0%) 
 MO     7 (    6) HAS LZ(WEIGHT)= 0.00(100.0%) 
 MO     8 (    7) HAS LZ(WEIGHT)= 0.00(100.0%) 
 MO     9 (    8) HAS LZ(WEIGHT)=-1.00( 50.0%)  1.00( 50.0%) 
 MO    10 (    8) HAS LZ(WEIGHT)=-1.00( 50.0%)  1.00( 50.0%) 
 MO    11 (    9) HAS LZ(WEIGHT)= 0.00(100.0%) 
[...]
   13  F  1 XY    0.000000   0.000000   0.000000   0.000000   0.000000
   14  F  1 XZ    0.000000   0.000000   0.000000   0.000000   0.000101
   15  F  1 YZ    0.000000   0.000000   0.000000   0.000000   0.000361
   16  CL 2  S    0.996123   0.000000   0.286797   0.002225   0.000000
   17  CL 2  S    0.014628  -0.000000  -1.030820  -0.008335   0.000000
   18  CL 2  X    0.000000   0.000000   0.000000   0.000000  -0.268378
   19  CL 2  Y    0.000000   0.000000   0.000000   0.000000  -0.956930
   20  CL 2  Z   -0.000068  -0.000121   0.006922  -0.992396   0.000000
   21  CL 2  S   -0.017694   0.000323  -0.024156   0.002875   0.000000
   22  CL 2  X    0.000000   0.000000   0.000000   0.000000  -0.005239
   23  CL 2  Y    0.000000   0.000000   0.000000   0.000000  -0.018680
   24  CL 2  Z    0.000009   0.000453   0.001699  -0.024420   0.000000
   25  CL 2  S    0.001417   0.000206   0.004975   0.000895   0.000000
   26  CL 2  X    0.000000   0.000000   0.000000   0.000000   0.001107
   27  CL 2  Y    0.000000   0.000000   0.000000   0.000000   0.003947
   28  CL 2  Z   -0.000019  -0.000194  -0.000124   0.004780   0.000000
   29  CL 2 XX    0.006264  -0.000090   0.001538  -0.001491   0.000000
   30  CL 2 YY    0.006264  -0.000090   0.001538  -0.001491   0.000000
   31  CL 2 ZZ    0.006302  -0.000609   0.000031   0.001206   0.000000
   32  CL 2 XY    0.000000   0.000000   0.000000   0.000000   0.000000
   33  CL 2 XZ    0.000000   0.000000   0.000000   0.000000   0.000140
   34  CL 2 YZ    0.000000   0.000000   0.000000   0.000000   0.000500

                      6          7          8          9         10
                   -8.1122    -1.6364    -1.1001    -0.7189    -0.7189
                     A          A          A          A          A   
    1  F  1  S    0.000000   0.219988  -0.074191   0.000000   0.000000
    2  F  1  S    0.000000  -0.515279   0.166765   0.000000   0.000000
    3  F  1  X   -0.000053   0.000000   0.000000   0.178401  -0.589752
    4  F  1  Y    0.000015   0.000000   0.000000   0.589752   0.178401
    5  F  1  Z    0.000000  -0.054552  -0.168950   0.000000   0.000000
    6  F  1  S    0.000000  -0.440520   0.225524   0.000000   0.000000
    7  F  1  X   -0.000009   0.000000   0.000000   0.124667  -0.412122
    8  F  1  Y    0.000002   0.000000   0.000000   0.412122   0.124667
    9  F  1  Z    0.000000  -0.048105  -0.098908   0.000000   0.000000
   10  F  1 XX    0.000000  -0.020080   0.005765   0.000000   0.000000
   11  F  1 YY    0.000000  -0.020080   0.005765   0.000000   0.000000
   12  F  1 ZZ    0.000000  -0.044369  -0.017217   0.000000   0.000000
   13  F  1 XY    0.000000   0.000000   0.000000   0.000000   0.000000
   14  F  1 XZ    0.000361   0.000000   0.000000   0.007857  -0.025973
   15  F  1 YZ   -0.000101   0.000000   0.000000   0.025973   0.007857
   16  CL 2  S    0.000000  -0.018941  -0.077912   0.000000   0.000000
   17  CL 2  S    0.000000   0.085310   0.352294   0.000000   0.000000
   18  CL 2  X   -0.956930   0.000000   0.000000  -0.027428   0.090671
   19  CL 2  Y    0.268378   0.000000   0.000000  -0.090671  -0.027428
   20  CL 2  Z    0.000000  -0.043547   0.002431   0.000000   0.000000
   21  CL 2  S    0.000000  -0.156010  -0.723613   0.000000   0.000000
   22  CL 2  X   -0.018680   0.000000   0.000000   0.069267  -0.228981
   23  CL 2  Y    0.005239   0.000000   0.000000   0.228981   0.069267
   24  CL 2  Z    0.000000   0.086031  -0.009407   0.000000   0.000000
   25  CL 2  S    0.000000  -0.028220  -0.282374   0.000000   0.000000
   26  CL 2  X    0.003947   0.000000   0.000000   0.029826  -0.098599
   27  CL 2  Y   -0.001107   0.000000   0.000000   0.098599   0.029826
   28  CL 2  Z    0.000000  -0.003613  -0.016636   0.000000   0.000000
   29  CL 2 XX    0.000000   0.010926  -0.000072   0.000000   0.000000
   30  CL 2 YY    0.000000   0.010926  -0.000072   0.000000   0.000000
   31  CL 2 ZZ    0.000000  -0.029943  -0.004078   0.000000   0.000000
   32  CL 2 XY    0.000000   0.000000   0.000000   0.000000   0.000000
   33  CL 2 XZ    0.000500   0.000000   0.000000  -0.009658   0.031927
   34  CL 2 YZ   -0.000140   0.000000   0.000000  -0.031927  -0.009658

                     11         12         13         14         15
                   -0.6929    -0.4859    -0.4859     0.0824     0.4907
                     A          A          A          A          A   
    1  F  1  S    0.032248   0.000000   0.000000   0.063096  -0.021335
    2  F  1  S   -0.084131   0.000000   0.000000  -0.057482   0.013799
    3  F  1  X    0.000000  -0.037531  -0.267892   0.000000   0.000000
    4  F  1  Y    0.000000   0.267892  -0.037531   0.000000   0.000000
    5  F  1  Z    0.481954   0.000000   0.000000  -0.362478  -0.086379
    6  F  1  S   -0.090490   0.000000   0.000000  -0.600179   0.401406
    7  F  1  X    0.000000  -0.030676  -0.218963   0.000000   0.000000
    8  F  1  Y    0.000000   0.218963  -0.030676   0.000000   0.000000
    9  F  1  Z    0.371440   0.000000   0.000000  -0.457814   0.147881
   10  F  1 XX   -0.012473   0.000000   0.000000   0.035046  -0.029262
   11  F  1 YY   -0.012473   0.000000   0.000000   0.035046  -0.029262
   12  F  1 ZZ    0.041508   0.000000   0.000000   0.027453   0.055468
   13  F  1 XY    0.000000   0.000000   0.000000   0.000000   0.000000
   14  F  1 XZ    0.000000   0.000152   0.001085   0.000000   0.000000
   15  F  1 YZ    0.000000  -0.001085   0.000152   0.000000   0.000000
   16  CL 2  S   -0.022009   0.000000   0.000000   0.019713   0.067908
   17  CL 2  S    0.104016   0.000000   0.000000  -0.093214  -0.075848
   18  CL 2  X    0.000000  -0.038081  -0.271816   0.000000   0.000000
   19  CL 2  Y    0.000000   0.271816  -0.038081   0.000000   0.000000
   20  CL 2  Z    0.173091   0.000000   0.000000   0.201150  -0.011227
   21  CL 2  S   -0.218060   0.000000   0.000000   0.199474   1.392631
   22  CL 2  X    0.000000   0.101177   0.722187   0.000000   0.000000
   23  CL 2  Y    0.000000  -0.722187   0.101177   0.000000   0.000000
   24  CL 2  Z   -0.423621   0.000000   0.000000  -0.519396   0.030022
   25  CL 2  S   -0.208106   0.000000   0.000000   0.264682  -1.916907
   26  CL 2  X    0.000000   0.050778   0.362447   0.000000   0.000000
   27  CL 2  Y    0.000000  -0.362447   0.050778   0.000000   0.000000
   28  CL 2  Z   -0.092212   0.000000   0.000000  -0.757412   0.238813
   29  CL 2 XX   -0.023688   0.000000   0.000000   0.050464   0.081014
   30  CL 2 YY   -0.023688   0.000000   0.000000   0.050464   0.081014
   31  CL 2 ZZ    0.068767   0.000000   0.000000  -0.100086   0.183279
   32  CL 2 XY    0.000000   0.000000   0.000000   0.000000   0.000000
   33  CL 2 XZ    0.000000   0.002183   0.015582   0.000000   0.000000
   34  CL 2 YZ    0.000000  -0.015582   0.002183   0.000000   0.000000

                     16         17         18         19         20
                    0.5907     0.5961     0.5961     1.0148     1.0148
                     A          A          A          A          A   
    1  F  1  S    0.015790   0.000000   0.000000   0.000000   0.000000
    2  F  1  S    0.152194   0.000000   0.000000   0.000000   0.000000
    3  F  1  X    0.000000   0.009468   0.038599   0.323127  -0.024160
    4  F  1  Y    0.000000   0.038599  -0.009468   0.024160   0.323127
    5  F  1  Z    0.234181   0.000000   0.000000   0.000000   0.000000
    6  F  1  S   -0.697154   0.000000   0.000000   0.000000   0.000000
    7  F  1  X    0.000000   0.027625   0.112617  -0.210590   0.015746
    8  F  1  Y    0.000000   0.112617  -0.027625  -0.015746  -0.210590
    9  F  1  Z   -0.049780   0.000000   0.000000   0.000000   0.000000
   10  F  1 XX    0.100090   0.000000   0.000000   0.000000   0.000000
   11  F  1 YY    0.100090   0.000000   0.000000   0.000000   0.000000
   12  F  1 ZZ   -0.015464   0.000000   0.000000   0.000000   0.000000
   13  F  1 XY    0.000000   0.000000   0.000000   0.000000   0.000000
   14  F  1 XZ    0.000000   0.009073   0.036988  -0.176375   0.013187
   15  F  1 YZ    0.000000   0.036988  -0.009073  -0.013187  -0.176375
   16  CL 2  S    0.001710   0.000000   0.000000   0.000000   0.000000
   17  CL 2  S   -0.010498   0.000000   0.000000   0.000000   0.000000
   18  CL 2  X    0.000000  -0.068261  -0.278271  -0.025986   0.001943
   19  CL 2  Y    0.000000  -0.278271   0.068261  -0.001943  -0.025986
   20  CL 2  Z   -0.304436   0.000000   0.000000   0.000000   0.000000
   21  CL 2  S    0.002773   0.000000   0.000000   0.000000   0.000000
   22  CL 2  X    0.000000   0.270106   1.101106   0.097386  -0.007281
   23  CL 2  Y    0.000000   1.101106  -0.270106   0.007281   0.097386
   24  CL 2  Z    1.158613   0.000000   0.000000   0.000000   0.000000
   25  CL 2  S    0.094087   0.000000   0.000000   0.000000   0.000000
   26  CL 2  X    0.000000  -0.304349  -1.240696  -0.043569   0.003258
   27  CL 2  Y    0.000000  -1.240696   0.304349  -0.003258  -0.043569
   28  CL 2  Z   -1.367713   0.000000   0.000000   0.000000   0.000000
   29  CL 2 XX    0.021782   0.000000   0.000000   0.000000   0.000000
   30  CL 2 YY    0.021782   0.000000   0.000000   0.000000   0.000000
   31  CL 2 ZZ   -0.005915   0.000000   0.000000   0.000000   0.000000
   32  CL 2 XY    0.000000   0.000000   0.000000   0.000000   0.000000
   33  CL 2 XZ    0.000000  -0.014645  -0.059702   0.886166  -0.066258
   34  CL 2 YZ    0.000000  -0.059702   0.014645   0.066258   0.886166

                     21         22         23
                    1.0880     1.0880     1.1575
                     A          A          A   
    1  F  1  S    0.000000   0.000000   0.033933
    2  F  1  S    0.000000   0.000000   1.188781
    3  F  1  X    0.000000   0.000000   0.000000
    4  F  1  Y    0.000000   0.000000   0.000000
    5  F  1  Z    0.000000   0.000000  -0.053112
    6  F  1  S    0.000000   0.000000  -2.101564
    7  F  1  X    0.000000   0.000000   0.000000
    8  F  1  Y    0.000000   0.000000   0.000000
    9  F  1  Z    0.000000   0.000000   0.287073
   10  F  1 XX    0.046248  -0.000000   0.546465
   11  F  1 YY   -0.046248   0.000000   0.546465
   12  F  1 ZZ    0.000000   0.000000   0.457308
   13  F  1 XY    0.000000   0.053402   0.000000
   14  F  1 XZ    0.000000   0.000000   0.000000
   15  F  1 YZ    0.000000   0.000000   0.000000
   16  CL 2  S    0.000000   0.000000   0.001252
   17  CL 2  S    0.000000   0.000000   0.000428
   18  CL 2  X    0.000000   0.000000   0.000000
   19  CL 2  Y    0.000000   0.000000   0.000000
   20  CL 2  Z    0.000000   0.000000   0.007509
   21  CL 2  S    0.000000   0.000000   0.038146
   22  CL 2  X    0.000000   0.000000   0.000000
   23  CL 2  Y    0.000000   0.000000   0.000000
   24  CL 2  Z    0.000000   0.000000  -0.059330
   25  CL 2  S    0.000000   0.000000   0.006559
   26  CL 2  X    0.000000   0.000000   0.000000
   27  CL 2  Y    0.000000   0.000000   0.000000
   28  CL 2  Z    0.000000   0.000000   0.019378
   29  CL 2 XX    0.863523  -0.000000   0.382534
   30  CL 2 YY   -0.863523   0.000000   0.382534
   31  CL 2 ZZ    0.000000   0.000000  -0.752627
   32  CL 2 XY    0.000000   0.997110   0.000000
   33  CL 2 XZ    0.000000   0.000000   0.000000
   34  CL 2 YZ    0.000000   0.000000   0.000000

     ----------------------------------------------------------------
     PROPERTY VALUES FOR THE UHF   SELF-CONSISTENT FIELD WAVEFUNCTION
     ----------------------------------------------------------------

          -----------------
          ENERGY COMPONENTS
          -----------------

         WAVEFUNCTION NORMALIZATION =       1.0000000000

                ONE ELECTRON ENERGY =    -873.8376634817
                TWO ELECTRON ENERGY =     264.8108640854
           NUCLEAR REPULSION ENERGY =      50.2072779383
                                      ------------------
                       TOTAL ENERGY =    -558.8195214580

 ELECTRON-ELECTRON POTENTIAL ENERGY =     264.8108640854
  NUCLEUS-ELECTRON POTENTIAL ENERGY =   -1432.1775125329
   NUCLEUS-NUCLEUS POTENTIAL ENERGY =      50.2072779383
                                      ------------------
             TOTAL POTENTIAL ENERGY =   -1117.1593705092
               TOTAL KINETIC ENERGY =     558.3398490512
                 VIRIAL RATIO (V/T) =       2.0008591047

  ...... PI ENERGY ANALYSIS ......

 ENERGY ANALYSIS:
            FOCK ENERGY=   -344.2159365248
          BARE H ENERGY=   -873.8376634817
     ELECTRONIC ENERGY =   -609.0268000032
         KINETIC ENERGY=    558.3398490512
          N-N REPULSION=     50.2072779383
           TOTAL ENERGY=   -558.8195220649
        SIGMA PART(1+2)=   -464.0380407021
               (K,V1,2)=    453.0825735508  -1074.2107015164    157.0900872635
           PI PART(1+2)=   -144.9887593011
               (K,V1,2)=    105.2572755004   -357.9668110165    107.7207762150
  SIGMA SKELETON, ERROR=   -413.8307627638      0.0000000000
             MIXED PART= 0.00000E+00 0.00000E+00 0.00000E+00 0.00000E+00
 ...... END OF PI ENERGY ANALYSIS ......

          ---------------------------------------
          MULLIKEN AND LOWDIN POPULATION ANALYSES
          ---------------------------------------

     ATOMIC MULLIKEN POPULATION IN EACH MOLECULAR ORBITAL
        ALPHA ORBITALS

                      1          2          3          4          5

                  1.000000   1.000000   1.000000   1.000000   1.000000

    1            -0.000000   1.000008  -0.000152  -0.000234  -0.000002
    2             1.000000  -0.000008   1.000152   1.000234   1.000002

                      6          7          8          9         10

                  1.000000   1.000000   1.000000   1.000000   1.000000

    1            -0.000002   0.915342   0.169701   0.869118   0.869118
    2             1.000002   0.084658   0.830299   0.130882   0.130882

                     11         12         13

                  1.000000   1.000000   1.000000

    1             0.606777   0.125928   0.125928
    2             0.393223   0.874072   0.874072

     ATOMIC MULLIKEN POPULATION IN EACH MOLECULAR ORBITAL
         BETA ORBITALS

                      1          2          3          4          5

                  1.000000   1.000000   1.000000   1.000000   1.000000

    1            -0.000000   1.000008  -0.000152  -0.000234  -0.000002
    2             1.000000  -0.000008   1.000152   1.000234   1.000002

                      6          7          8          9         10

                  1.000000   1.000000   1.000000   1.000000   1.000000

    1            -0.000002   0.915342   0.169701   0.869118   0.869118
    2             1.000002   0.084658   0.830299   0.130882   0.130882

                     11         12         13

                  1.000000   1.000000   1.000000

    1             0.606777   0.125928   0.125928
    2             0.393223   0.874072   0.874072

     ATOMIC SPIN POPULATION (ALPHA MINUS BETA)
       ATOM         MULL.POP.                    LOW.POP.
    1 F             0.000000                     0.000000
    2 CL            0.000000                     0.000000


          ********* ALL ELECTRONS ********

               ----- POPULATIONS IN EACH AO -----
                             MULLIKEN      LOWDIN
              1  F  1  S      1.99551     1.97830
              2  F  1  S      0.99280     0.88203
              3  F  1  X      1.22508     1.19965
              4  F  1  Y      1.22508     1.19965
              5  F  1  Z      0.78154     0.74581
              6  F  1  S      0.88366     0.53907
              7  F  1  X      0.76095     0.78878
              8  F  1  Y      0.76095     0.78878
              9  F  1  Z      0.61358     0.66772
             10  F  1 XX      0.02744     0.16836
             11  F  1 YY      0.02744     0.16836
             12  F  1 ZZ      0.06091     0.19199
             13  F  1 XY      0.00000     0.00000
             14  F  1 XZ      0.00406     0.01009
             15  F  1 YZ      0.00406     0.01009
             16  CL 2  S      1.99891     1.99849
             17  CL 2  S      1.99864     1.98190
             18  CL 2  X      1.99567     1.97889
             19  CL 2  Y      1.99567     1.97889
             20  CL 2  Z      1.98857     1.94813
             21  CL 2  S      1.41181     0.66313
             22  CL 2  X      1.39351     1.29797
             23  CL 2  Y      1.39351     1.29797
             24  CL 2  Z      0.57346     0.54192
             25  CL 2  S      0.53339     0.49924
             26  CL 2  X      0.61097     0.71181
             27  CL 2  Y      0.61097     0.71181
             28  CL 2  Z      0.07847     0.21336
             29  CL 2 XX      0.00605     0.27437
             30  CL 2 YY      0.00605     0.27437
             31  CL 2 ZZ      0.02177     0.26345
             32  CL 2 XY      0.00000     0.00000
             33  CL 2 XZ      0.00977     0.01280
             34  CL 2 YZ      0.00977     0.01280

          ----- MULLIKEN ATOMIC OVERLAP POPULATIONS -----
          (OFF-DIAGONAL ELEMENTS NEED TO BE MULTIPLIED BY 2)

             1           2

    1    9.2989290
    2    0.0641305  16.5728100

          TOTAL MULLIKEN AND LOWDIN ATOMIC POPULATIONS
       ATOM         MULL.POP.    CHARGE          LOW.POP.     CHARGE
    1 F             9.363059   -0.363059         9.338703   -0.338703
    2 CL           16.636941    0.363059        16.661297    0.338703

          -------------------------------
          BOND ORDER AND VALENCE ANALYSIS     BOND ORDER THRESHOLD=0.050
          -------------------------------

                   BOND                       BOND                       BOND
  ATOM PAIR DIST  ORDER      ATOM PAIR DIST  ORDER      ATOM PAIR DIST  ORDER
    1   2  1.613  0.828

                       TOTAL       BONDED        FREE
      ATOM            VALENCE     VALENCE     VALENCE
    1 F                 0.828       0.828       0.000
    2 CL                0.828       0.828       0.000

          -----------------------------------------
          ATOMIC SPIN DENSITY AT THE NUCLEUS (A.U.)
          -----------------------------------------
                            SPIN DENS    ALPHA DENS     BETA DENS
    1  F            9.0     0.0000000     209.66326     209.66326
    2  CL          17.0     0.0000000    1511.75284    1511.75284

          ---------------------
          ELECTROSTATIC MOMENTS
          ---------------------

 POINT   1           X           Y           Z (BOHR)    CHARGE
                 0.000000    0.000000   -0.026690        0.00 (A.U.)
         DX          DY          DZ         /D/  (DEBYE)
     0.000000    0.000000    1.207635    1.207635
 ...... END OF PROPERTY EVALUATION ......
 STEP CPU TIME =     0.00 TOTAL CPU TIME =          0.1 (      0.0 MIN)
 TOTAL WALL CLOCK TIME=          0.1 SECONDS, CPU UTILIZATION IS    99.50%
  $VIB   
          IVIB=   0 IATOM=   0 ICOORD=   0 E=     -558.8195214580
  0.000000000E+00 0.000000000E+00-1.156141318E-05 0.000000000E+00 0.000000000E+00
  1.156141147E-05
  0.000000000E+00 0.000000000E+00 1.207634762E+00
 ......END OF GEOMETRY SEARCH......
 STEP CPU TIME =     0.00 TOTAL CPU TIME =          0.1 (      0.0 MIN)
 TOTAL WALL CLOCK TIME=          0.1 SECONDS, CPU UTILIZATION IS    99.50%
               990205  WORDS OF DYNAMIC MEMORY USED
 EXECUTION OF GAMESS TERMINATED NORMALLY 19:56:11 20-OCT-2025    
----- accounting info -----
Files used on the parent node Macbooks-MacBook-Pro.local were:
-rw-r--r--  1 macbookpro  staff      241 Oct 20 19:56 /Users/macbookpro/local/gamess/scr/clf_q0m1_uhf_631g_star.F05
-rw-r--r--  1 macbookpro  staff   720064 Oct 20 19:56 /Users/macbookpro/local/gamess/scr/clf_q0m1_uhf_631g_star.F08
-rw-r--r--  1 macbookpro  staff  2094080 Oct 20 19:56 /Users/macbookpro/local/gamess/scr/clf_q0m1_uhf_631g_star.F10
-rw-r--r--  1 macbookpro  staff   123935 Oct 20 19:56 /Users/macbookpro/local/gamess/scr/clf_q0m1_uhf_631g_star.dat
Mon Oct 20 19:56:11 +07 2025
0.180u 0.053s 0:00.23 100.0%	0+0k 0+0io 46pf+0w
