1 : clo_q0m2_uhf_631g_star.inp
----- GAMESS execution script 'rungms' -----
This job is running on host Macbooks-MacBook-Pro.local
under operating system Darwin at Mon Oct 20 19:56:10 +07 2025
Available scratch disk space (Kbyte units) at beginning of the job is
Filesystem   1024-blocks      Used Available Capacity iused      ifree %iused  Mounted on
/dev/disk3s5   482797652 122175968 339917244    27% 1896416 3399172440    0%   /System/Volumes/Data
GAMESS temporary binary files will be written to /Users/macbookpro/local/gamess/scr
GAMESS supplementary output files will be written to /Users/macbookpro/local/gamess/scr
Copying input file /Users/macbookpro/sq2_data/clo_q0m2_uhf_631g_star.inp to your run's scratch directory...
          *******************************************************
          *                                                     *
          *          GAMESS VERSION = 30 JUN 2023 (R1)          *
          *                                                     *
          *              doi.org/10.1063/5.0005188              *
          *                                                     *
          **************** 64 BIT LINUX VERSION *****************

  GAMESS HAS BEEN MADE POSSIBLE WITH IMPORTANT CONTRIBUTIONS FROM
  THE FOLLOWING INDIVIDUALS (IN ALPHABETICAL ORDER):

     IVANA ADAMOVIC, CHRISTINE AIKENS, TOMOKO AKAMA,
     MELISA ALKAN, YURI ALEXEEV, YURIKO AOKI, POOJA ARORA,
     TOSHIO ASADA, ANDREY ASADCHEV, KIM K. BALDRIDGE,
     PRADIPTA BANDYOPADHYAY, TAYLOR A. BARNES, MARIA BARYSZ,
     ROB BELL, JONATHAN BENTZ, COLLEEN BERTONI,
     JERRY A. BOATZ, BRETT BODE, KURT BRORSEN, KURT R. BRORSEN,
     LAIMUTIS BYTAUTAS, CALEB CARLIN, LAURA CARRINGTON,
     GALINA CHABAN, BENOIT CHAMPAGNE, WEI CHEN, MAHITO CHIBA,
     DAN CHIPMAN, CHEOL HO CHOI, TANNER CULPITT,
     DIPAYAN DATTA, PAUL DAY, ALBERT DEFUSCO,
     NUWAN DESILVA, J. EMILIANO DEUSTUA,
     TIM DUDLEY, MICHEL DUPUIS, STEVEN T. ELBERT,
     DMITRI FEDOROV, KATHERINE FERRERAS, MICHAEL FILATOV,
     ALEX FINDLATER,GRAHAM FLETCHER, MARK FREITAG,
     CHRISTIAN FRIEDL, DAVID GARMER, 
     IGOR S. GERASIMOV, KURT GLAESEMANN,
     MARK S. GORDON, JEFFREY R. GOUR, FENG LONG GU,
     EMILIE B. GUIDEZ, ANASTASIA GUNINA, SHARON HAMMES-SCHIFFER,
     MASATAKE HARUTA, KIMIHIKO HIRAO, YASUHIRO IKABATA,
     TZVETELIN IORDANOV, STEPHAN IRLE, KAZUYA ISHIMURA,
     JOE IVANIC, FRANK JENSEN, JAN H. JENSEN, VISVALDAS KAIRYS,
     MUNEAKI KAMIYA, MICHIO KATOUDA, NAOAKI KAWAKAMI, DAN KEMP,
     BERNARD KIRTMAN, KAZUO KITAURA, MARIUSZ KLOBUKOWSKI,
     MASATO KOBAYASHI, KONSTANTIN KOMAROV, PRAKASHAN KORAMBATH,
     JACEK KORCHOWIEC, SHIRO KOSEKI, KAROL KOWALSKI,
     JIMMY KROMANN, STANISLAW A. KUCHARSKI, HENRY KURTZ,
     SAROM SOK LEANG, SEUNGHOON LEE, HUI LI, SHUHUA LI, WEI LI,
     JESSE J. LUTZ, ALEKSANDR O. LYKHIN,
     ILIAS MAGOULAS, MARCIN MAKOWSKI,
     JOANI MATO, NIKITA MATSUNAGA, BENEDETTA MENNUCCI,
     GRANT MERRILL, NORIYUKI MINEZAWA, VLADIMIR MIRONOV,
     EISAKU MIYOSHI, JOHN A. MONTGOMERY JR., HIROTOSHI MORI,
     JONATHAN MULLIN, MONIKA MUSIAL, SHIGERU NAGASE,
     TAKESHI NAGATA, HIROMI NAKAI, TAKAHITO NAKAJIMA,
     YUYA NAKAJIMA, HARUYUKI NAKANO, HIROYA NAKATA, SEAN NEDD,
     HEATHER NETZLOFF, KIET A. NGUYEN, YOSHIO NISHIMOTO,
     BOSILJKA NJEGIC, RYAN OLSON, MIKE PAK, ROBERTO PEVERATI,
     BUU PHAM, PIOTR PIECUCH, ANNA POMOGAEVA, DAVID POOLE,
     SPENCER PRUITT, OLIVIER QUINET, LUKE ROSKOP,
     KLAUS RUEDENBERG, ANDREW SAND, TOSAPORN SATTASATHUCHANA,
     NOZOMI SAWADA, MICHAEL W. SCHMIDT, PATRICK E. SCHNEIDER,
     JUNJI SEINO, PRACHI SHARMA, JUN SHEN, JIM SHOEMAKER,
     YINAN SHU, DEJUN SI, JONATHAN SKONE, LYUDMILA SLIPCHENKO,
     TONY SMITH, JIE SONG, MARK SPACKMAN, CASPER STEINMANN,
     WALT STEVENS, PEIFENG SU, SHUJUN SU, CHET SWALINA,
     CHINAMI TAKASHIMA, TETSUYA TAKETSUGU, ZHEN TAO,
     NANDUN THELLAMUREGE, SEIKEN TOKURA, JACOPO TOMASI,
     TSUGUKI TOUMA, TAKAO TSUNEDA, HIROAKI UMEDA,
     JORGE LUIS GALVEZ VALLEJO, YALI WANG, SIMON WEBB,
     AARON WEST, THERESA L. WINDUS, MARTA WLOCH,
     PENG XU, KIYOSHI YAGI, SUSUMU YANAGISAWA, YANG YANG,
     SOOHAENG YOO, TAKESHI YOSHIKAWA, FEDERICO ZAHARIEV,
     TOBY ZENG

  WHO ARE SUPPORTED BY THEIR INSTITUTION/UNIVERSITY/COMPANY/GROUP
  (IN ALPHABETICAL ORDER):

     EP ANALYTICS,
     FACULTES UNIVERSITAIRES NOTRE-DAME DE LA PAIX,
     INSTITUTE FOR MOLECULAR SCIENCE, IOWA STATE UNIVERSITY,
     JACKSON STATE UNIVERSITY, JOHANNES KEPLER UNIVERSITY LINZ,
     KYUNGPOOK NATIONAL UNIVERSITY
     KYUSHU UNIVERSITY, MICHIGAN STATE UNIVERSITY,
     MIE UNIVERSITY, THE MOLECULAR SCIENCES SOFTWARE INSTITUTE,
     MOSCOW STATE UNIVERSITY,
     N. COPERNICUS UNIVERSITY, NAGOYA UNIVERSITY,
     NANJING UNIVERSITY, NAT. INST. OF ADVANCED INDUSTRIAL
     SCIENCE AND TECHNOLOGY, NATIONAL INST. OF STANDARDS AND
     TECHNOLOGY, NESMEYANOV INSTITUTE OF ORGANOELEMENT COMPOUNDS
     OF RUSSIAN ACADEMY OF SCIENCES, OSAKA PREFECTURE UNIVERSITY,
     PENNSYLVANIA STATE UNIVERSITY, TOKYO INSTITUTE OF TECHNOLOGY,
     UNIVERSITY OF AARHUS, UNIVERSITY OF ALBERTA,
     UNIVERSITY OF CALIFORNIA AT SANTA BARBARA,
     UNIVERSITY OF COPENHAGEN, UNIVERSITY OF IOWA,
     UNIVERSITY OF MEMPHIS, UNIVERSITY OF MINNESOTA,
     UNIVERSITY OF NEBRASKA, UNIVERSITY OF NEW ENGLAND,
     UNIVERSITY OF NOTRE DAME, UNIVERSITY OF PISA,
     UNIVERSITY OF SILESIA, UNIVERSITY OF TOKYO,
     UNIVERSITY OF ZURICH, WASEDA UNIVERSITY,
     YALE UNIVERSITY

  GAMESS SOFTWARE MANAGEMENT TEAM FOR THIS RELEASE:
     MARK S. GORDON (TEAM LEAD),
     BRETT BODE (SENIOR ADVISOR),
     GIUSEPPE BARCA,
     COLLEEN BERTONI,
     KRISTOPHER KEIPERT (ADVISOR),
     SAROM S. LEANG (DEVELOPMENT LEAD),
     BUU PHAM,
     JACKSON HAYES (WEBSITE ADMINISTRATOR),
     PENG XU

 EXECUTION OF GAMESS BEGUN 19:56:10 20-OCT-2025    

            ECHO OF THE FIRST FEW INPUT CARDS -
 INPUT CARD> $CONTRL SCFTYP=UHF ICHARG=0 MULT=2                                             
 INPUT CARD> RUNTYP=OPTIMIZE                                                                
 INPUT CARD> $END                                                                           
 INPUT CARD> $BASIS GBASIS=N31 NGAUSS=6 NDFUNC=1 $END                                       
 INPUT CARD> $DATA                                                                          
 INPUT CARD> ... this is comment ...                                                        
 INPUT CARD> C1                                                                             
 INPUT CARD> CL   17   0.00000000   0.00000000   0.51768002                                 
 INPUT CARD> O     8   0.00000000   0.00000000  -1.09102602                                 
 INPUT CARD> $END                                                                           
 INPUT CARD>                                                                                
      1000000 WORDS OF MEMORY AVAILABLE

     BASIS OPTIONS
     -------------
     GBASIS=N31          IGAUSS=       6      POLAR=POPN31  
     NDFUNC=       1     NFFUNC=       0     DIFFSP=       F
     NPFUNC=       0      DIFFS=       F     BASNAM=        


     RUN TITLE
     ---------
  ... this is comment ...                                                        

 THE POINT GROUP OF THE MOLECULE IS C1      
 THE ORDER OF THE PRINCIPAL AXIS IS     0

 ATOM      ATOMIC                      COORDINATES (BOHR)
           CHARGE         X                   Y                   Z
 CL         17.0     0.0000000000        0.0000000000        0.9782733871
 O           8.0     0.0000000000        0.0000000000       -2.0617402233

          INTERNUCLEAR DISTANCES (ANGS.)
          ------------------------------

                1 CL         2 O     

   1 CL      0.0000000    1.6087060 *
   2 O       1.6087060 *  0.0000000  

  * ... LESS THAN  3.000


     ATOMIC BASIS SET
     ----------------
 THE CONTRACTED PRIMITIVE FUNCTIONS HAVE BEEN UNNORMALIZED
 THE CONTRACTED BASIS FUNCTIONS ARE NOW NORMALIZED TO UNITY

  SHELL TYPE  PRIMITIVE        EXPONENT          CONTRACTION COEFFICIENT(S)

 CL        

      1   S       1         25180.1000000    0.001832959848
      1   S       2          3780.3500000    0.014034198835
      1   S       3           860.4740000    0.069097394263
      1   S       4           242.1450000    0.237451980285
      1   S       5            77.3349000    0.483033959896
      1   S       6            26.2470000    0.339855971783

      2   L       7           491.7650000   -0.002297391417    0.003989400879
      2   L       8           116.9840000   -0.030713718938    0.030317706682
      2   L       9            37.4153000   -0.112528069386    0.129880028625
      2   L      10            13.7834000    0.045016327757    0.327951072278
      2   L      11             5.4521500    0.589353363399    0.453527099954
      2   L      12             2.2258800    0.465206286849    0.252154055573

      3   L      13             3.1864900   -0.251831288046   -0.014299314719
      3   L      14             1.1442700    0.061589315012    0.323572333073
      3   L      15             0.4203770    1.060185422549    0.743507765337

      4   L      16             0.1426570    1.000000000000    1.000000000000

      5   D      17             0.7500000    1.000000000000

 O         

      6   S      18          5484.6716600    0.001831074430
      6   S      19           825.2349460    0.013950172200
      6   S      20           188.0469580    0.068445078098
      6   S      21            52.9645000    0.232714335992
      6   S      22            16.8975704    0.470192897984
      6   S      23             5.7996353    0.358520852987

      7   L      24            15.5396162   -0.110777549525    0.070874268231
      7   L      25             3.5999336   -0.148026262701    0.339752839147
      7   L      26             1.0137618    1.130767015354    0.727158577316

      8   L      27             0.2700058    1.000000000000    1.000000000000

      9   D      28             0.8000000    1.000000000000

 TOTAL NUMBER OF BASIS SET SHELLS             =    9
 NUMBER OF CARTESIAN GAUSSIAN BASIS FUNCTIONS =   34
 NUMBER OF ELECTRONS                          =   25
 CHARGE OF MOLECULE                           =    0
 SPIN MULTIPLICITY                            =    2
 NUMBER OF OCCUPIED ORBITALS (ALPHA)          =   13
 NUMBER OF OCCUPIED ORBITALS (BETA )          =   12
 TOTAL NUMBER OF ATOMS                        =    2
 THE NUCLEAR REPULSION ENERGY IS       44.7366418147

 THIS MOLECULE IS RECOGNIZED AS BEING LINEAR,
 ORBITAL LZ DEGENERACY TOLERANCE ETOLLZ= 1.00E-06

     $CONTRL OPTIONS
     ---------------
 SCFTYP=UHF          RUNTYP=OPTIMIZE     EXETYP=RUN     
 MPLEVL=       0     CITYP =NONE         CCTYP =NONE         VBTYP =NONE    
 DFTTYP=NONE         TDDFT =NONE    
 MULT  =       2     ICHARG=       0     NZVAR =       0     COORD =UNIQUE  
 PP    =NONE         RELWFN=NONE         LOCAL =NONE         NUMGRD=       F
 ISPHER=      -1     NOSYM =       0     MAXIT =      30     UNITS =ANGS    
 PLTORB=       F     MOLPLT=       F     AIMPAC=       F     FRIEND=        
 NPRINT=       7     IREST =       0     GEOM  =INPUT   
 NORMF =       0     NORMP =       0     ITOL  =      20     ICUT  =       9
 INTTYP=BEST         GRDTYP=BEST         QMTTOL= 1.0E-06

     $SYSTEM OPTIONS
     ---------------
  REPLICATED MEMORY=     1000000 WORDS (ON EVERY NODE).
 DISTRIBUTED MEMDDI=           0 MILLION WORDS IN AGGREGATE,
 MEMDDI DISTRIBUTED OVER   1 PROCESSORS IS           0 WORDS/PROCESSOR.
 TOTAL MEMORY REQUESTED ON EACH PROCESSOR=     1000000 WORDS.
 TIMLIM=      525600.00 MINUTES, OR     365.0 DAYS.
 PARALL= F  BALTYP=  DLB     KDIAG=    0  COREFL= F
 MXSEQ2=     300 MXSEQ3=     150  mem10=         0  mem22=         0

          ----------------
          PROPERTIES INPUT
          ----------------

     MOMENTS            FIELD           POTENTIAL          DENSITY
 IEMOM =       1   IEFLD =       0   IEPOT =       0   IEDEN =       0
 WHERE =COMASS     WHERE =NUCLEI     WHERE =NUCLEI     WHERE =NUCLEI  
 OUTPUT=BOTH       OUTPUT=BOTH       OUTPUT=BOTH       OUTPUT=BOTH    
 IEMINT=       0   IEFINT=       0                     IEDINT=       0
                                                       MORB  =       0
          EXTRAPOLATION IN EFFECT
          SOSCF IN EFFECT
          DIIS or SOSCF will be reset if energy rises
 ORBITAL PRINTING OPTION: NPREO=     1    34     2     1

     -------------------------------
     INTEGRAL TRANSFORMATION OPTIONS
     -------------------------------
     NWORD  =            0
     CUTTRF = 1.0E-09     MPTRAN =       0
     DIRTRF =       F     AOINTS =DUP     

          ----------------------
          INTEGRAL INPUT OPTIONS
          ----------------------
 NOPK  =       1 NORDER=       0 SCHWRZ=       F

     ------------------------------------------
     THE POINT GROUP IS C1 , NAXIS= 0, ORDER= 1
     ------------------------------------------

     DIMENSIONS OF THE SYMMETRY SUBSPACES ARE
 A   =   34

 ..... DONE SETTING UP THE RUN .....
 STEP CPU TIME =     0.00 TOTAL CPU TIME =          0.0 (      0.0 MIN)
 TOTAL WALL CLOCK TIME=          0.0 SECONDS, CPU UTILIZATION IS    97.56%


          -----------------------------
          STATIONARY POINT LOCATION RUN
          -----------------------------

 OBTAINING INITIAL HESSIAN, HESS=GUESS   
 CARTESIAN COORDINATE OPTIMIZATION USING BADGER'S RULE FORCE CONSTANT GUESS

          PARAMETERS CONTROLLING GEOMETRY SEARCH ARE
          METHOD =QA                  UPHESS =BFGS    
          NNEG   =         0          NFRZ   =         0
          NSTEP  =        50          IFOLOW =         1
          HESS   =GUESS               RESTAR =         F
          IHREP  =         0          HSSEND =         F
          NPRT   =         0          NPUN   =         0
          OPTTOL = 1.000E-04          RMIN   = 1.500E-03
          RMAX   = 1.000E-01          RLIM   = 7.000E-02
          DXMAX  = 3.000E-01          PURIFY =         F
          MOVIE  =         F          TRUPD  =         T
          TRMAX  = 5.000E-01          TRMIN  = 5.000E-02
          ITBMAT =         5          STPT   =         F
          STSTEP = 1.000E-02          PROJCT=          T

 BEGINNING GEOMETRY SEARCH POINT NSERCH=   0 ...

 COORDINATES OF ALL ATOMS ARE (ANGS)
   ATOM   CHARGE       X              Y              Z
 ------------------------------------------------------------
 CL         17.0   0.0000000000   0.0000000000   0.5176800200
 O           8.0   0.0000000000   0.0000000000  -1.0910260200

          ********************
          1 ELECTRON INTEGRALS
          ********************
 ...... END OF ONE-ELECTRON INTEGRALS ......
 STEP CPU TIME =     0.00 TOTAL CPU TIME =          0.0 (      0.0 MIN)
 TOTAL WALL CLOCK TIME=          0.0 SECONDS, CPU UTILIZATION IS    97.79%

          -------------
          GUESS OPTIONS
          -------------
          GUESS =HUCKEL            NORB  =       0          NORDER=       0
          MIX   =       F          PRTMO =       F          PUNMO =       F
          TOLZ  = 1.0E-08          TOLE  = 1.0E-05
          SYMDEN=       F          PURIFY=       F

 INITIAL GUESS ORBITALS GENERATED BY HUCKEL   ROUTINE.
 HUCKEL GUESS REQUIRES     11066 WORDS.

 SYMMETRIES FOR INITIAL GUESS ORBITALS FOLLOW.  ALPHA SET(S).
    13 ORBITALS ARE OCCUPIED (    6 CORE ORBITALS).
     7=A        8=A        9=A       10=A       11=A       12=A       13=A   
    14=A       15=A       16=A       17=A       18=A       19=A       20=A   
    21=A       22=A       23=A   

 SYMMETRIES FOR INITIAL GUESS ORBITALS FOLLOW.   BETA SET(S).
    12 ORBITALS ARE OCCUPIED (    6 CORE ORBITALS).
     7=A        8=A        9=A       10=A       11=A       12=A       13=A   
    14=A       15=A       16=A       17=A       18=A       19=A       20=A   
    21=A       22=A   
 ...... END OF INITIAL ORBITAL SELECTION ......
 STEP CPU TIME =     0.00 TOTAL CPU TIME =          0.0 (      0.0 MIN)
 TOTAL WALL CLOCK TIME=          0.0 SECONDS, CPU UTILIZATION IS    98.16%

                    ----------------------
                    AO INTEGRAL TECHNOLOGY
                    ----------------------
     S,P,L SHELL ROTATED AXIS INTEGRALS, REPROGRAMMED BY
        KAZUYA ISHIMURA (IMS) AND JOSE SIERRA (SYNSTAR).
     S,P,D,L SHELL ROTATED AXIS INTEGRALS PROGRAMMED BY
        KAZUYA ISHIMURA (INSTITUTE FOR MOLECULAR SCIENCE).
     S,P,D,F,G SHELL TO TOTAL QUARTET ANGULAR MOMENTUM SUM 5,
        ERIC PROGRAM BY GRAHAM FLETCHER (ELORET AND NASA ADVANCED
        SUPERCOMPUTING DIVISION, AMES RESEARCH CENTER).
     S,P,D,F,G,L SHELL GENERAL RYS QUADRATURE PROGRAMMED BY
        MICHEL DUPUIS (PACIFIC NORTHWEST NATIONAL LABORATORY).

          --------------------
          2 ELECTRON INTEGRALS
          --------------------

 THE -PK- OPTION IS OFF, THE INTEGRALS ARE NOT IN SUPERMATRIX FORM.
 STORING   15000 INTEGRALS/RECORD ON DISK, USING 12 BYTES/INTEGRAL.
 TWO ELECTRON INTEGRAL EVALUATION REQUIRES   90441 WORDS OF MEMORY.
 II,JST,KST,LST =  1  1  1  1 NREC =         1 INTLOC =    1
 II,JST,KST,LST =  2  1  1  1 NREC =         1 INTLOC =    2
 II,JST,KST,LST =  3  1  1  1 NREC =         1 INTLOC =   34
 II,JST,KST,LST =  4  1  1  1 NREC =         1 INTLOC =  214
 II,JST,KST,LST =  5  1  1  1 NREC =         1 INTLOC =  776
 II,JST,KST,LST =  6  1  1  1 NREC =         1 INTLOC = 2864
 II,JST,KST,LST =  7  1  1  1 NREC =         1 INTLOC = 3952
 II,JST,KST,LST =  8  1  1  1 NREC =         1 INTLOC =10467
 II,JST,KST,LST =  9  1  1  1 NREC =         2 INTLOC = 6029
 TOTAL NUMBER OF NONZERO TWO-ELECTRON INTEGRALS =               45922
          4 INTEGRAL RECORDS WERE STORED ON DISK FILE  8.
  ...... END OF TWO-ELECTRON INTEGRALS .....
 STEP CPU TIME =     0.01 TOTAL CPU TIME =          0.0 (      0.0 MIN)
 TOTAL WALL CLOCK TIME=          0.0 SECONDS, CPU UTILIZATION IS    99.35%

          ---------------------------
                  UHF SCF CALCULATION
          ---------------------------

     NUCLEAR ENERGY =        44.7366418147
     MAXIT = 30     NPUNCH=  2     MULT=  2
     EXTRAP=T  DAMP=F  SHIFT=F  RSTRCT=F  DIIS=F  SOSCF=T
     DENSITY MATRIX CONV=  1.00E-05
     SOSCF WILL OPTIMIZE     273 ALPHA AND     264 BETA ROTATION ANGLES.
     SOGTOL= 2.500E-01
     MEMORY REQUIRED FOR UHF/ROHF ITERS=     45863 WORDS.

 ITER EX      TOTAL ENERGY        E CHANGE  DENSITY CHANGE    ORB. GRAD 
   1  0     -533.6142466852  -533.6142466852   0.489594975   0.000000000
          ---------------START SECOND ORDER SCF---------------
   2  1     -534.0798830085    -0.4656363234   0.348279099   0.145685455
   3  2     -534.1352447914    -0.0553617828   0.160710168   0.141580424
   4  3     -534.2165931006    -0.0813483092   0.062957165   0.037701486
   5  4     -534.2241184841    -0.0075253836   0.177563025   0.024675287
   6  5     -534.2302606833    -0.0061421992   0.047176605   0.015856366
   7  6     -534.2318110566    -0.0015503733   0.017391894   0.005137014
   8  7     -534.2320154358    -0.0002043792   0.010739088   0.002564229
   9  8     -534.2320696860    -0.0000542501   0.004473989   0.001096966
  10  9     -534.2320841262    -0.0000144402   0.007632918   0.001051106
  11 10     -534.2320988764    -0.0000147502   0.001900141   0.000465002
  12 11     -534.2321012517    -0.0000023754   0.000594926   0.000171813
  13 12     -534.2321016025    -0.0000003508   0.000165873   0.000050299
  14 13     -534.2321016202    -0.0000000177   0.000054335   0.000015029
  15 14     -534.2321016223    -0.0000000021   0.000015575   0.000004419
  16 15     -534.2321016225    -0.0000000002   0.000004711   0.000001348
  17 16     -534.2321016225    -0.0000000000   0.000001078   0.000000435

          -----------------
          DENSITY CONVERGED
          -----------------
     TIME TO FORM FOCK OPERATORS=       0.0 SECONDS (       0.0 SEC/ITER)
     TIME TO SOLVE SCF EQUATIONS=       0.0 SECONDS (       0.0 SEC/ITER)

 FINAL UHF ENERGY IS     -534.2321016225 AFTER  17 ITERATIONS

          --------------------
          SPIN SZ   =    0.500
          S-SQUARED =    0.765
          --------------------

 LZ VALUE ANALYSIS FOR THE MOS
 ----------------------------------------
 MO     1 (    1) HAS LZ(WEIGHT)= 0.00(100.0%) 
 MO     2 (    2) HAS LZ(WEIGHT)= 0.00(100.0%) 
 MO     3 (    3) HAS LZ(WEIGHT)= 0.00(100.0%) 
 MO     4 (    4) HAS LZ(WEIGHT)= 0.00(100.0%) 
 MO     5 (    5) HAS LZ(WEIGHT)= 0.00(100.0%) 
 MO     6 (    6) HAS LZ(WEIGHT)= 0.00(100.0%) 
 MO     7 (    7) HAS LZ(WEIGHT)= 0.00(100.0%) 
 MO     8 (    8) HAS LZ(WEIGHT)= 0.00(100.0%) 
 MO     9 (    9) HAS LZ(WEIGHT)= 0.00(100.0%) 
 MO    10 (   10) HAS LZ(WEIGHT)= 0.00(100.0%) 
 MO    11 (   11) HAS LZ(WEIGHT)= 0.00(100.0%) 
 MO    12 (   12) HAS LZ(WEIGHT)= 0.00(100.0%) 
 MO    13 (   13) HAS LZ(WEIGHT)= 0.00(100.0%) 
 MO    14 (   14) HAS LZ(WEIGHT)= 0.00(100.0%) 
 MO    15 (   15) HAS LZ(WEIGHT)= 0.00(100.0%) 
 MO    16 (   16) HAS LZ(WEIGHT)= 0.00(100.0%) 
 MO    17 (   17) HAS LZ(WEIGHT)= 0.00(100.0%) 
 MO    18 (   18) HAS LZ(WEIGHT)= 0.00(100.0%) 
 MO    19 (   19) HAS LZ(WEIGHT)= 0.00(100.0%) 
 MO    20 (   20) HAS LZ(WEIGHT)= 0.00(100.0%) 
 MO    21 (   21) HAS LZ(WEIGHT)= 0.00(100.0%) 
 MO    22 (   22) HAS LZ(WEIGHT)= 0.00(100.0%) 
 MO    23 (   23) HAS LZ(WEIGHT)= 0.00(100.0%) 
 MO    24 (   24) HAS LZ(WEIGHT)= 0.00(100.0%) 
 MO    25 (   25) HAS LZ(WEIGHT)= 0.00(100.0%) 
 MO    26 (   26) HAS LZ(WEIGHT)= 0.00(100.0%) 
 MO    27 (   27) HAS LZ(WEIGHT)= 0.00(100.0%) 
 MO    28 (   28) HAS LZ(WEIGHT)= 0.00(100.0%) 
 MO    29 (   29) HAS LZ(WEIGHT)= 0.00(100.0%) 
 MO    30 (   30) HAS LZ(WEIGHT)= 0.00(100.0%) 
 MO    31 (   31) HAS LZ(WEIGHT)= 0.00(100.0%) 
 MO    32 (   32) HAS LZ(WEIGHT)= 0.00(100.0%) 
 MO    33 (   33) HAS LZ(WEIGHT)= 0.00(100.0%) 
 MO    34 (   34) HAS LZ(WEIGHT)= 0.00(100.0%) 

  ----- ALPHA SET ----- 

          ------------
          EIGENVECTORS
          ------------

                      1          2          3          4          5
                 -104.9037   -20.7142   -10.6329    -8.1010    -8.1005
                     A          A          A          A          A   
    1  CL 1  S    0.996120   0.000005  -0.286773  -0.000000  -0.001907
    2  CL 1  S    0.014639  -0.000011   1.030707  -0.000000   0.007151
    3  CL 1  X   -0.000000   0.000000   0.000000   0.078215  -0.000000
    4  CL 1  Y   -0.000000   0.000000   0.000000   0.990626  -0.000000
    5  CL 1  Z   -0.000062   0.000107  -0.005866  -0.000000   0.992489
    6  CL 1  S   -0.017721  -0.000034   0.024894  -0.000000  -0.002722
    7  CL 1  X   -0.000000   0.000000   0.000000   0.001563  -0.000000
    8  CL 1  Y   -0.000000   0.000000   0.000000   0.019801  -0.000000
    9  CL 1  Z    0.000010  -0.000495  -0.001545  -0.000000   0.024138
   10  CL 1  S    0.001421  -0.000221  -0.005047  -0.000000  -0.001347
   11  CL 1  X   -0.000000   0.000000   0.000000  -0.000338  -0.000000
   12  CL 1  Y   -0.000000   0.000000   0.000000  -0.004280  -0.000000
   13  CL 1  Z   -0.000020   0.000199   0.000143  -0.000000  -0.004410
   14  CL 1 XX    0.006273   0.000041  -0.001703  -0.000000   0.001346
   15  CL 1 YY    0.006273   0.000034  -0.001526  -0.000000   0.001383
   16  CL 1 ZZ    0.006309   0.000426  -0.000511  -0.000000  -0.001112
   17  CL 1 XY    0.000000  -0.000001   0.000016  -0.000000   0.000003
   18  CL 1 XZ   -0.000000   0.000000   0.000000  -0.000031  -0.000000
   19  CL 1 YZ   -0.000000   0.000000   0.000000  -0.000393  -0.000000
   20  O  2  S    0.000013   0.994385  -0.000064  -0.000000   0.000066
   21  O  2  S    0.000081   0.022171   0.000351  -0.000000  -0.000729
   22  O  2  X   -0.000000   0.000000   0.000000   0.000001  -0.000000
   23  O  2  Y   -0.000000   0.000000   0.000000   0.000007  -0.000000
   24  O  2  Z    0.000022   0.001244   0.000176  -0.000000  -0.000100
   25  O  2  S   -0.000115   0.004280  -0.000220  -0.000000   0.001673
   26  O  2  X   -0.000000   0.000000   0.000000   0.000009  -0.000000
   27  O  2  Y   -0.000000   0.000000   0.000000   0.000120  -0.000000
   28  O  2  Z    0.000026  -0.000581  -0.001195  -0.000000   0.002948
   29  O  2 XX    0.000046  -0.004262   0.000190  -0.000000  -0.000513
   30  O  2 YY    0.000046  -0.003986   0.000189  -0.000000  -0.000519
   31  O  2 ZZ   -0.000061  -0.004775  -0.000878  -0.000000   0.001346
   32  O  2 XY   -0.000000   0.000025  -0.000000  -0.000000  -0.000001
   33  O  2 XZ   -0.000000   0.000000   0.000000  -0.000029  -0.000000
   34  O  2 YZ   -0.000000   0.000000   0.000000  -0.000363  -0.000000

                      6          7          8          9         10
                   -8.0974    -1.4707    -1.0655    -0.7349    -0.6613
                     A          A          A          A          A   
    1  CL 1  S   -0.000000   0.030802   0.074692   0.000000   0.000000
    2  CL 1  S   -0.000000  -0.139030  -0.338751   0.000000   0.000000
    3  CL 1  X    0.990700  -0.000000  -0.000000  -0.007726  -0.134328
    4  CL 1  Y   -0.078220  -0.000000  -0.000000  -0.097851   0.010606
    5  CL 1  Z   -0.000000   0.056654  -0.021388   0.000000   0.000000
    6  CL 1  S   -0.000000   0.260099   0.694272   0.000000   0.000000
    7  CL 1  X    0.019564  -0.000000  -0.000000   0.019478   0.342812
    8  CL 1  Y   -0.001545  -0.000000  -0.000000   0.246705  -0.027067
    9  CL 1  Z   -0.000000  -0.117610   0.050854   0.000000   0.000000
   10  CL 1  S   -0.000000   0.036416   0.304788   0.000000   0.000000
   11  CL 1  X   -0.004201  -0.000000  -0.000000   0.006793   0.138043
   12  CL 1  Y    0.000332  -0.000000  -0.000000   0.086039  -0.010899
   13  CL 1  Z   -0.000000   0.020342   0.007586   0.000000   0.000000
   14  CL 1 XX   -0.000000  -0.013282   0.001580   0.000000   0.000000
   15  CL 1 YY   -0.000000  -0.010961   0.008442   0.000000   0.000000
   16  CL 1 ZZ   -0.000000   0.042005  -0.007332   0.000000   0.000000
   17  CL 1 XY   -0.000000   0.000213   0.000630   0.000000   0.000000
   18  CL 1 XZ   -0.000443  -0.000000  -0.000000  -0.002687  -0.036463
   19  CL 1 YZ    0.000035  -0.000000  -0.000000  -0.034038   0.002879
   20  O  2  S   -0.000000  -0.203306   0.104220   0.000000   0.000000
   21  O  2  S   -0.000000   0.484713  -0.249863   0.000000   0.000000
   22  O  2  X    0.000013  -0.000000  -0.000000   0.050814   0.578968
   23  O  2  Y   -0.000001  -0.000000  -0.000000   0.643578  -0.045712
   24  O  2  Z   -0.000000   0.092104   0.143362   0.000000   0.000000
   25  O  2  S   -0.000000   0.427320  -0.307024   0.000000   0.000000
   26  O  2  X    0.000114  -0.000000  -0.000000   0.030784   0.373578
   27  O  2  Y   -0.000009  -0.000000  -0.000000   0.389892  -0.029496
   28  O  2  Z   -0.000000   0.062399   0.057272   0.000000   0.000000
   29  O  2 XX   -0.000000  -0.006623   0.000360   0.000000   0.000000
   30  O  2 YY   -0.000000   0.017262  -0.013167   0.000000   0.000000
   31  O  2 ZZ   -0.000000   0.024250   0.018969   0.000000   0.000000
   32  O  2 XY   -0.000000   0.002191  -0.001241   0.000000   0.000000
   33  O  2 XZ   -0.000359  -0.000000  -0.000000   0.002406   0.030995
   34  O  2 YZ    0.000028  -0.000000  -0.000000   0.030473  -0.002447

                     11         12         13         14         15
                   -0.6568    -0.4884    -0.4601     0.1191     0.4902
                     A          A          A          A          A   
    1  CL 1  S   -0.017873   0.000000  -0.000000  -0.019361  -0.068230
    2  CL 1  S    0.084833   0.000000  -0.000000   0.097366   0.076559
    3  CL 1  X   -0.000000  -0.021504  -0.255664   0.000000  -0.000000
    4  CL 1  Y   -0.000000  -0.272363   0.020186   0.000000  -0.000000
    5  CL 1  Z    0.185005   0.000000  -0.000000  -0.179716  -0.007822
    6  CL 1  S   -0.178225   0.000000  -0.000000  -0.179766  -1.394561
    7  CL 1  X   -0.000000   0.057059   0.680301   0.000000  -0.000000
    8  CL 1  Y   -0.000000   0.722678  -0.053713   0.000000  -0.000000
    9  CL 1  Z   -0.460180   0.000000  -0.000000   0.466895   0.031916
   10  CL 1  S   -0.223577   0.000000  -0.000000  -0.497985   2.002854
   11  CL 1  X   -0.000000   0.029999   0.368310   0.000000  -0.000000
   12  CL 1  Y   -0.000000   0.379950  -0.029080   0.000000  -0.000000
   13  CL 1  Z   -0.091331   0.000000  -0.000000   0.944135  -0.367726
   14  CL 1 XX   -0.024038   0.000000  -0.000000  -0.053510  -0.084996
   15  CL 1 YY   -0.027196   0.000000  -0.000000  -0.056775  -0.087854
   16  CL 1 ZZ    0.074697   0.000000  -0.000000   0.115939  -0.176912
   17  CL 1 XY   -0.000290   0.000000  -0.000000  -0.000299  -0.000262
   18  CL 1 XZ   -0.000000   0.001431   0.025542   0.000000  -0.000000
   19  CL 1 YZ   -0.000000   0.018120  -0.002017   0.000000  -0.000000
   20  O  2  S    0.042741   0.000000  -0.000000  -0.068023   0.017339
   21  O  2  S   -0.114080   0.000000  -0.000000   0.106630  -0.045492
   22  O  2  X   -0.000000  -0.023224  -0.369282   0.000000  -0.000000
   23  O  2  Y   -0.000000  -0.294138   0.029157   0.000000  -0.000000
   24  O  2  Z    0.486494   0.000000  -0.000000   0.376783   0.123648
   25  O  2  S   -0.125417   0.000000  -0.000000   0.749502  -0.457353
   26  O  2  X   -0.000000  -0.017468  -0.289316   0.000000  -0.000000
   27  O  2  Y   -0.000000  -0.221245   0.022843   0.000000  -0.000000
   28  O  2  Z    0.335152   0.000000  -0.000000   0.582737  -0.206886
   29  O  2 XX   -0.010893   0.000000  -0.000000  -0.026686   0.018698
   30  O  2 YY   -0.018806   0.000000  -0.000000  -0.020326   0.021892
   31  O  2 ZZ    0.046484   0.000000  -0.000000  -0.010160  -0.081112
   32  O  2 XY   -0.000726   0.000000  -0.000000   0.000583   0.000293
   33  O  2 XZ   -0.000000   0.000243  -0.002962   0.000000  -0.000000
   34  O  2 YZ   -0.000000   0.003076   0.000234   0.000000  -0.000000

                     16         17         18         19         20
                    0.5938     0.5946     0.6020     0.9482     0.9798
                     A          A          A          A          A   
    1  CL 1  S   -0.000000  -0.004232  -0.000000  -0.000000   0.000000
    2  CL 1  S   -0.000000   0.011350  -0.000000  -0.000000   0.000000
    3  CL 1  X    0.022589  -0.000000   0.286404  -0.001443  -0.022074
    4  CL 1  Y    0.286100  -0.000000  -0.022613  -0.018281   0.001743
    5  CL 1  Z   -0.000000   0.308308  -0.000000  -0.000000   0.000000
    6  CL 1  S   -0.000000  -0.061831  -0.000000  -0.000000   0.000000
    7  CL 1  X   -0.089339  -0.000000  -1.132580   0.004974   0.080106
    8  CL 1  Y   -1.131525  -0.000000   0.089423   0.062996  -0.006325
    9  CL 1  Z   -0.000000  -1.159708  -0.000000  -0.000000   0.000000
   10  CL 1  S   -0.000000  -0.072017  -0.000000  -0.000000   0.000000
   11  CL 1  X    0.101454  -0.000000   1.286893   0.008226   0.061146
   12  CL 1  Y    1.284969  -0.000000  -0.101606   0.104186  -0.004828
   13  CL 1  Z   -0.000000   1.396048  -0.000000  -0.000000   0.000000
   14  CL 1 XX   -0.000000  -0.012063  -0.000000  -0.000000   0.000000
   15  CL 1 YY   -0.000000  -0.016900  -0.000000  -0.000000   0.000000
   16  CL 1 ZZ   -0.000000  -0.023871  -0.000000  -0.000000   0.000000
   17  CL 1 XY   -0.000000  -0.000444  -0.000000  -0.000000   0.000000
   18  CL 1 XZ    0.005080  -0.000000   0.068607   0.053217   0.725452
   19  CL 1 YZ    0.064335  -0.000000  -0.005417   0.674014  -0.057278
   20  O  2  S   -0.000000  -0.001926  -0.000000  -0.000000   0.000000
   21  O  2  S   -0.000000  -0.131046  -0.000000  -0.000000   0.000000
   22  O  2  X   -0.004348  -0.000000  -0.046903   0.050378   0.596733
   23  O  2  Y   -0.055074  -0.000000   0.003703   0.638061  -0.047115
   24  O  2  Z   -0.000000  -0.267489  -0.000000  -0.000000   0.000000
   25  O  2  S   -0.000000   0.669793  -0.000000  -0.000000   0.000000
   26  O  2  X   -0.009585  -0.000000  -0.133421  -0.051542  -0.561179
   27  O  2  Y   -0.121404  -0.000000   0.010534  -0.652801   0.044308
   28  O  2  Z   -0.000000   0.088248  -0.000000  -0.000000   0.000000
   29  O  2 XX   -0.000000  -0.066918  -0.000000  -0.000000   0.000000
   30  O  2 YY   -0.000000  -0.075806  -0.000000  -0.000000   0.000000
   31  O  2 ZZ   -0.000000   0.059121  -0.000000  -0.000000   0.000000
   32  O  2 XY   -0.000000  -0.000815  -0.000000  -0.000000   0.000000
   33  O  2 XZ   -0.003146  -0.000000  -0.040463  -0.010812  -0.145055
   34  O  2 YZ   -0.039849  -0.000000   0.003195  -0.136937   0.011453

                     21         22         23         24         25
                    1.0042     1.0864     1.0864     1.1990     1.2366
                     A          A          A          A          A   
    1  CL 1  S    0.005342   0.000000  -0.000262   0.000000   0.000000
    2  CL 1  S    0.009038   0.000000   0.002885   0.000000   0.000000
    3  CL 1  X   -0.000000   0.000000   0.000000  -0.002033  -0.023205
    4  CL 1  Y   -0.000000   0.000000   0.000000  -0.025746   0.001832
    5  CL 1  Z    0.009497   0.000000   0.001682   0.000000   0.000000
    6  CL 1  S    0.141046  -0.000000   0.000165   0.000000   0.000000
    7  CL 1  X   -0.000000   0.000000   0.000000   0.008818   0.101885
    8  CL 1  Y   -0.000000   0.000000   0.000000   0.111683  -0.008044
    9  CL 1  Z   -0.059820  -0.000000  -0.007901   0.000000   0.000000
   10  CL 1  S   -0.272350  -0.000000  -0.019049   0.000000   0.000000
   11  CL 1  X   -0.000000   0.000000   0.000000  -0.026207  -0.331704
   12  CL 1  Y   -0.000000   0.000000   0.000000  -0.331928   0.026190
   13  CL 1  Z    0.205542   0.000000   0.021298   0.000000   0.000000
   14  CL 1 XX   -0.142764   0.135401  -0.848107   0.000000   0.000000
   15  CL 1 YY   -0.187405  -0.135401   0.855318   0.000000   0.000000
   16  CL 1 ZZ    0.398099  -0.000000  -0.000947   0.000000   0.000000
   17  CL 1 XY   -0.004095   0.983939   0.156274   0.000000   0.000000
   18  CL 1 XZ   -0.000000   0.000000   0.000000   0.050718   0.590087
   19  CL 1 YZ   -0.000000   0.000000   0.000000   0.642373  -0.046590
   20  O  2  S   -0.012905  -0.000000  -0.000901   0.000000   0.000000
   21  O  2  S   -1.029107  -0.000000  -0.033886   0.000000   0.000000
   22  O  2  X   -0.000000   0.000000   0.000000  -0.051749  -0.714396
   23  O  2  Y   -0.000000   0.000000   0.000000  -0.655427   0.056405
   24  O  2  Z    0.449245   0.000000   0.019331   0.000000   0.000000
   25  O  2  S    1.847472   0.000000   0.071058   0.000000   0.000000
   26  O  2  X   -0.000000   0.000000   0.000000   0.076330   1.010722
   27  O  2  Y   -0.000000   0.000000   0.000000   0.966755  -0.079801
   28  O  2  Z   -0.572053   0.000000  -0.013572   0.000000   0.000000
   29  O  2 XX   -0.354081   0.008523  -0.063907   0.000000   0.000000
   30  O  2 YY   -0.370285  -0.008523   0.043065   0.000000   0.000000
   31  O  2 ZZ   -0.287029  -0.000000  -0.011746   0.000000   0.000000
   32  O  2 XY   -0.001487   0.061939   0.009814   0.000000   0.000000
   33  O  2 XZ   -0.000000   0.000000   0.000000  -0.017523  -0.204228
   34  O  2 YZ   -0.000000   0.000000   0.000000  -0.221942   0.016125

                     26         27         28         29         30
                    1.3360     1.4686     1.9858     1.9863     2.1330
                     A          A          A          A          A   
    1  CL 1  S    0.007115   0.009946   0.000000   0.000733  -0.000000
    2  CL 1  S    0.017736   0.021132   0.000000  -0.004598  -0.000000
    3  CL 1  X    0.000000   0.000000   0.000000   0.000000   0.002420
    4  CL 1  Y    0.000000   0.000000   0.000000   0.000000   0.030648
    5  CL 1  Z    0.040354  -0.014826   0.000000   0.007430  -0.000000
    6  CL 1  S    0.199548   0.340199  -0.000000   0.007314  -0.000000
    7  CL 1  X    0.000000   0.000000   0.000000   0.000000  -0.006807
    8  CL 1  Y    0.000000   0.000000   0.000000   0.000000  -0.086212
    9  CL 1  Z   -0.286381   0.167488   0.000000  -0.036180  -0.000000
   10  CL 1  S   -0.080156  -1.526645   0.000000   0.067823  -0.000000
   11  CL 1  X    0.000000   0.000000   0.000000   0.000000  -0.010528
   12  CL 1  Y    0.000000   0.000000   0.000000   0.000000  -0.133339
   13  CL 1  Z    0.184882   1.131206  -0.000000  -0.044071  -0.000000
   14  CL 1 XX    0.415141   0.291590  -0.012305   0.056274  -0.000000
   15  CL 1 YY    0.393373   0.274589   0.012305  -0.098184  -0.000000
   16  CL 1 ZZ   -0.647004  -0.624394   0.000000   0.040985  -0.000000
   17  CL 1 XY   -0.001997  -0.001560  -0.089422  -0.014170  -0.000000
   18  CL 1 XZ    0.000000   0.000000   0.000000   0.000000   0.034640
   19  CL 1 YZ    0.000000   0.000000   0.000000   0.000000   0.438735
   20  O  2  S   -0.020244  -0.094109  -0.000000   0.012086  -0.000000
   21  O  2  S    0.301368  -1.175228   0.000000   0.031560  -0.000000
   22  O  2  X    0.000000   0.000000   0.000000   0.000000  -0.008746
   23  O  2  Y    0.000000   0.000000   0.000000   0.000000  -0.110777
   24  O  2  Z    0.757826  -0.346584  -0.000000   0.017801  -0.000000
   25  O  2  S   -0.259262   3.195074  -0.000000  -0.165524  -0.000000
   26  O  2  X    0.000000   0.000000   0.000000   0.000000   0.016913
   27  O  2  Y    0.000000   0.000000   0.000000   0.000000   0.214213
   28  O  2  Z   -0.735344   1.337287  -0.000000  -0.077935  -0.000000
   29  O  2 XX    0.042625  -0.247516   0.135692  -0.816479  -0.000000
   30  O  2 YY    0.046177  -0.200522  -0.135692   0.889657  -0.000000
   31  O  2 ZZ    0.041935  -0.700981   0.000000   0.001463  -0.000000
   32  O  2 XY    0.000326   0.004311   0.986051   0.156523  -0.000000
   33  O  2 XZ    0.000000   0.000000   0.000000   0.000000   0.078068
   34  O  2 YZ    0.000000   0.000000   0.000000   0.000000   0.988771

                     31         32         33         34
                    2.1808     2.7641     3.7784     4.6806
                     A          A          A          A   
    1  CL 1  S   -0.000000  -0.032442   0.015188   0.167373
    2  CL 1  S   -0.000000   0.141814  -0.060067  -0.789446
    3  CL 1  X    0.030614  -0.000000  -0.000000   0.000000
    4  CL 1  Y   -0.002417  -0.000000  -0.000000   0.000000
    5  CL 1  Z   -0.000000  -0.175229   0.006712  -0.038149
    6  CL 1  S   -0.000000  -0.648555   0.429657   5.513658
    7  CL 1  X   -0.086583  -0.000000  -0.000000   0.000000
    8  CL 1  Y    0.006836  -0.000000  -0.000000   0.000000
    9  CL 1  Z   -0.000000   0.818239   0.085770   0.172374
   10  CL 1  S   -0.000000  -0.747530  -0.737746   0.022159
   11  CL 1  X   -0.130972  -0.000000  -0.000000   0.000000
   12  CL 1  Y    0.010341  -0.000000  -0.000000   0.000000
   13  CL 1  Z   -0.000000   0.413243   0.535580  -0.013086
   14  CL 1 XX   -0.000000   0.471806  -0.138794  -2.414259
   15  CL 1 YY   -0.000000   0.467194  -0.139437  -2.413579
   16  CL 1 ZZ   -0.000000  -0.563001  -0.201451  -2.592034
   17  CL 1 XY   -0.000000  -0.000423  -0.000059   0.000062
   18  CL 1 XZ    0.428813  -0.000000  -0.000000   0.000000
   19  CL 1 YZ   -0.033857  -0.000000  -0.000000   0.000000
   20  O  2  S   -0.000000  -0.040929  -0.457856   0.025862
   21  O  2  S   -0.000000  -0.725373   0.300802  -0.145636
   22  O  2  X   -0.111778  -0.000000  -0.000000   0.000000
   23  O  2  Y    0.008825  -0.000000  -0.000000   0.000000
   24  O  2  Z   -0.000000  -0.219760  -0.150077  -0.002183
   25  O  2  S   -0.000000   1.741147   3.529255  -0.094904
   26  O  2  X    0.211680  -0.000000  -0.000000   0.000000
   27  O  2  Y   -0.016713  -0.000000  -0.000000   0.000000
   28  O  2  Z   -0.000000   1.130910   0.580872   0.176339
   29  O  2 XX   -0.000000  -0.672161  -1.594944   0.007611
   30  O  2 YY   -0.000000  -0.623672  -1.578381   0.008380
   31  O  2 ZZ   -0.000000   1.022858  -1.333828   0.379742
   32  O  2 XY   -0.000000   0.004448   0.001519   0.000071
   33  O  2 XZ    0.991387  -0.000000  -0.000000   0.000000
   34  O  2 YZ   -0.078275  -0.000000  -0.000000   0.000000

 LZ VALUE ANALYSIS FOR THE MOS
 ----------------------------------------
 MO     1 (    1) HAS LZ(WEIGHT)= 0.00(100.0%) 
 MO     2 (    2) HAS LZ(WEIGHT)= 0.00(100.0%) 
 MO     3 (    3) HAS LZ(WEIGHT)= 0.00(100.0%) 
 MO     4 (    4) HAS LZ(WEIGHT)= 0.00(100.0%) 
 MO     5 (    5) HAS LZ(WEIGHT)= 0.00(100.0%) 
 MO     6 (    6) HAS LZ(WEIGHT)= 0.00(100.0%) 
 MO     7 (    7) HAS LZ(WEIGHT)= 0.00(100.0%) 
 MO     8 (    8) HAS LZ(WEIGHT)= 0.00(100.0%) 
 MO     9 (    9) HAS LZ(WEIGHT)= 0.00(100.0%) 
 MO    10 (   10) HAS LZ(WEIGHT)= 0.00(100.0%) 
 MO    11 (   11) HAS LZ(WEIGHT)= 0.00(100.0%) 
 MO    12 (   12) HAS LZ(WEIGHT)= 0.00(100.0%) 
 MO    13 (   13) HAS LZ(WEIGHT)= 0.00(100.0%) 
 MO    14 (   14) HAS LZ(WEIGHT)= 0.00(100.0%) 
 MO    15 (   15) HAS LZ(WEIGHT)= 0.00(100.0%) 
 MO    16 (   16) HAS LZ(WEIGHT)= 0.00(100.0%) 
 MO    17 (   17) HAS LZ(WEIGHT)= 0.00(100.0%) 
 MO    18 (   18) HAS LZ(WEIGHT)= 0.00(100.0%) 
 MO    19 (   19) HAS LZ(WEIGHT)= 0.00(100.0%) 
 MO    20 (   20) HAS LZ(WEIGHT)= 0.00(100.0%) 
 MO    21 (   21) HAS LZ(WEIGHT)= 0.00(100.0%) 
 MO    22 (   22) HAS LZ(WEIGHT)= 0.00(100.0%) 
 MO    23 (   23) HAS LZ(WEIGHT)= 0.00(100.0%) 
 MO    24 (   24) HAS LZ(WEIGHT)= 0.00(100.0%) 
 MO    25 (   25) HAS LZ(WEIGHT)= 0.00(100.0%) 
 MO    26 (   26) HAS LZ(WEIGHT)= 0.00(100.0%) 
 MO    27 (   27) HAS LZ(WEIGHT)= 0.00(100.0%) 
 MO    28 (   28) HAS LZ(WEIGHT)= 0.00(100.0%) 
 MO    29 (   29) HAS LZ(WEIGHT)= 0.00(100.0%) 
 MO    30 (   30) HAS LZ(WEIGHT)= 0.00(100.0%) 
 MO    31 (   31) HAS LZ(WEIGHT)= 0.00(100.0%) 
 MO    32 (   32) HAS LZ(WEIGHT)= 0.00(100.0%) 
 MO    33 (   33) HAS LZ(WEIGHT)= 0.00(100.0%) 
 MO    34 (   34) HAS LZ(WEIGHT)= 0.00(100.0%) 

  ----- BETA SET ----- 

          ------------
          EIGENVECTORS
          ------------

                      1          2          3          4          5
                 -104.9033   -20.6727   -10.6324    -8.1048    -8.0971
                     A          A          A          A          A   
    1  CL 1  S    0.996121   0.000006  -0.286773  -0.002028   0.000000
    2  CL 1  S    0.014637  -0.000030   1.030706   0.007588   0.000000
    3  CL 1  X   -0.000000   0.000000   0.000000  -0.000000   0.990707
    4  CL 1  Y   -0.000000   0.000000   0.000000  -0.000000  -0.078221
    5  CL 1  Z   -0.000062   0.000075  -0.006176   0.992572   0.000000
    6  CL 1  S   -0.017713   0.000075   0.024897  -0.002879   0.000000
    7  CL 1  X   -0.000000   0.000000   0.000000  -0.000000   0.019542
    8  CL 1  Y   -0.000000   0.000000   0.000000  -0.000000  -0.001543
    9  CL 1  Z    0.000012  -0.000373  -0.001685   0.023840   0.000000
   10  CL 1  S    0.001419   0.000108  -0.005027  -0.001277   0.000000
   11  CL 1  X   -0.000000   0.000000   0.000000  -0.000000  -0.004200
   12  CL 1  Y   -0.000000   0.000000   0.000000  -0.000000   0.000332
   13  CL 1  Z   -0.000020  -0.000063   0.000148  -0.004332   0.000000
   14  CL 1 XX    0.006270  -0.000040  -0.001714   0.001403   0.000000
   15  CL 1 YY    0.006274  -0.000002  -0.001759   0.001267   0.000000
   16  CL 1 ZZ    0.006302   0.000227  -0.000314  -0.001097   0.000000
   17  CL 1 XY    0.000000   0.000003  -0.000004  -0.000012   0.000000
   18  CL 1 XZ   -0.000000   0.000000   0.000000  -0.000000  -0.000498
   19  CL 1 YZ   -0.000000   0.000000   0.000000  -0.000000   0.000039
   20  O  2  S    0.000013   0.995251  -0.000072   0.000062   0.000000
   21  O  2  S    0.000081   0.019418   0.000339  -0.000664   0.000000
   22  O  2  X   -0.000000   0.000000   0.000000  -0.000000   0.000015
   23  O  2  Y   -0.000000   0.000000   0.000000  -0.000000  -0.000001
   24  O  2  Z    0.000022   0.001200   0.000154  -0.000074   0.000000
   25  O  2  S   -0.000115   0.002469  -0.000176   0.001591   0.000000
   26  O  2  X   -0.000000   0.000000   0.000000  -0.000000   0.000128
   27  O  2  Y   -0.000000   0.000000   0.000000  -0.000000  -0.000010
   28  O  2  Z    0.000026  -0.000669  -0.001200   0.002835   0.000000
   29  O  2 XX    0.000046  -0.002827   0.000174  -0.000494   0.000000
   30  O  2 YY    0.000045  -0.003955   0.000206  -0.000486   0.000000
   31  O  2 ZZ   -0.000060  -0.003361  -0.000923   0.001266   0.000000
   32  O  2 XY   -0.000000  -0.000103   0.000003   0.000001   0.000000
   33  O  2 XZ   -0.000000   0.000000   0.000000  -0.000000  -0.000346
   34  O  2 YZ   -0.000000   0.000000   0.000000  -0.000000   0.000027

                      6          7          8          9         10
                   -8.0951    -1.3546    -1.0136    -0.6304    -0.6184
                     A          A          A          A          A   
    1  CL 1  S    0.000000   0.044740   0.067974   0.000000   0.013736
    2  CL 1  S    0.000000  -0.202056  -0.308561   0.000000  -0.067243
    3  CL 1  X    0.078209  -0.000000  -0.000000  -0.162221  -0.000000
    4  CL 1  Y    0.990550  -0.000000  -0.000000   0.012808  -0.000000
    5  CL 1  Z    0.000000   0.065382  -0.043088   0.000000  -0.202062
    6  CL 1  S    0.000000   0.389190   0.637441   0.000000   0.134654
    7  CL 1  X    0.001583  -0.000000  -0.000000   0.416579  -0.000000
    8  CL 1  Y    0.020055  -0.000000  -0.000000  -0.032891  -0.000000
    9  CL 1  Z    0.000000  -0.143153   0.100739   0.000000   0.512662
   10  CL 1  S    0.000000   0.093343   0.296880   0.000000   0.200775
   11  CL 1  X   -0.000349  -0.000000  -0.000000   0.177583  -0.000000
   12  CL 1  Y   -0.004424  -0.000000  -0.000000  -0.014021  -0.000000
   13  CL 1  Z    0.000000   0.012718   0.017443   0.000000   0.124870
   14  CL 1 XX    0.000000  -0.014889   0.007790   0.000000   0.023667
   15  CL 1 YY    0.000000  -0.014218   0.002385   0.000000   0.017428
   16  CL 1 ZZ    0.000000   0.048826  -0.010903   0.000000  -0.068853
   17  CL 1 XY    0.000000   0.000062  -0.000496   0.000000  -0.000572
   18  CL 1 XZ   -0.000041  -0.000000  -0.000000  -0.038411  -0.000000
   19  CL 1 YZ   -0.000522  -0.000000  -0.000000   0.003033  -0.000000
   20  O  2  S    0.000000  -0.173673   0.135518   0.000000  -0.056504
   21  O  2  S    0.000000   0.394356  -0.312854   0.000000   0.138416
   22  O  2  X   -0.000006  -0.000000  -0.000000   0.517360  -0.000000
   23  O  2  Y   -0.000080  -0.000000  -0.000000  -0.040848  -0.000000
   24  O  2  Z    0.000000   0.101935   0.105872   0.000000  -0.435556
   25  O  2  S    0.000000   0.377369  -0.385995   0.000000   0.195815
   26  O  2  X    0.000010  -0.000000  -0.000000   0.355120  -0.000000
   27  O  2  Y    0.000124  -0.000000  -0.000000  -0.028038  -0.000000
   28  O  2  Z    0.000000   0.066358   0.042769   0.000000  -0.315649
   29  O  2 XX    0.000000   0.007787  -0.011940   0.000000   0.014373
   30  O  2 YY    0.000000  -0.016807   0.010772   0.000000   0.003527
   31  O  2 ZZ    0.000000   0.038898  -0.000035   0.000000  -0.041325
   32  O  2 XY    0.000000  -0.002256   0.002084   0.000000  -0.000995
   33  O  2 XZ   -0.000030  -0.000000  -0.000000   0.029435  -0.000000
   34  O  2 YZ   -0.000382  -0.000000  -0.000000  -0.002324  -0.000000

                     11         12         13         14         15
                   -0.5210    -0.4429     0.0819     0.1432     0.4916
                     A          A          A          A          A   
    1  CL 1  S   -0.000000   0.000000  -0.000000  -0.019428  -0.068646
    2  CL 1  S   -0.000000   0.000000  -0.000000   0.101237   0.078224
    3  CL 1  X   -0.021180  -0.238935   0.007630   0.000000  -0.000000
    4  CL 1  Y   -0.268257   0.018865   0.096635   0.000000  -0.000000
    5  CL 1  Z   -0.000000   0.000000  -0.000000  -0.157541  -0.005159
    6  CL 1  S   -0.000000   0.000000  -0.000000  -0.173283  -1.399783
    7  CL 1  X    0.055061   0.637877  -0.020968   0.000000  -0.000000
    8  CL 1  Y    0.697370  -0.050363  -0.265571   0.000000  -0.000000
    9  CL 1  Z   -0.000000   0.000000  -0.000000   0.409641   0.022556
   10  CL 1  S   -0.000000   0.000000  -0.000000  -0.560417   1.990592
   11  CL 1  X    0.028501   0.351820  -0.017128   0.000000  -0.000000
   12  CL 1  Y    0.360985  -0.027778  -0.216929   0.000000  -0.000000
   13  CL 1  Z   -0.000000   0.000000  -0.000000   0.974909  -0.336365
   14  CL 1 XX   -0.000000   0.000000  -0.000000  -0.059278  -0.087580
   15  CL 1 YY   -0.000000   0.000000  -0.000000  -0.062057  -0.083777
   16  CL 1 ZZ   -0.000000   0.000000  -0.000000   0.134508  -0.179865
   17  CL 1 XY   -0.000000   0.000000  -0.000000  -0.000255   0.000349
   18  CL 1 XZ   -0.002837   0.030554  -0.006903   0.000000  -0.000000
   19  CL 1 YZ   -0.035934  -0.002412  -0.087424   0.000000  -0.000000
   20  O  2  S   -0.000000   0.000000  -0.000000  -0.072688   0.015332
   21  O  2  S   -0.000000   0.000000  -0.000000   0.099165  -0.035161
   22  O  2  X    0.010405  -0.420851   0.039229   0.000000  -0.000000
   23  O  2  Y    0.131790   0.033228   0.496855   0.000000  -0.000000
   24  O  2  Z   -0.000000   0.000000  -0.000000   0.386972   0.125817
   25  O  2  S   -0.000000   0.000000  -0.000000   0.805280  -0.447548
   26  O  2  X    0.008881  -0.344625   0.050539   0.000000  -0.000000
   27  O  2  Y    0.112488   0.027210   0.640106   0.000000  -0.000000
   28  O  2  Z   -0.000000   0.000000  -0.000000   0.637984  -0.179788
   29  O  2 XX   -0.000000   0.000000  -0.000000  -0.023920   0.020222
   30  O  2 YY   -0.000000   0.000000  -0.000000  -0.032840   0.019005
   31  O  2 ZZ   -0.000000   0.000000  -0.000000  -0.001533  -0.076738
   32  O  2 XY   -0.000000   0.000000  -0.000000  -0.000818  -0.000112
   33  O  2 XZ    0.002105  -0.005186   0.002187   0.000000  -0.000000
   34  O  2 YZ    0.026655   0.000409   0.027702   0.000000  -0.000000

                     16         17         18         19         20
                    0.5962     0.6019     0.6019     0.9839     1.0307
                     A          A          A          A          A   
    1  CL 1  S   -0.002847   0.000000   0.000000   0.000000   0.004373
    2  CL 1  S    0.008567   0.000000   0.000000   0.000000   0.009607
    3  CL 1  X   -0.000000   0.286114   0.022828  -0.025959   0.000000
    4  CL 1  Y   -0.000000  -0.022590   0.289127   0.002050   0.000000
    5  CL 1  Z    0.307530   0.000000   0.000000   0.000000   0.010824
    6  CL 1  S   -0.034487   0.000000   0.000000   0.000000   0.119425
    7  CL 1  X   -0.000000  -1.131565  -0.089853   0.095863   0.000000
    8  CL 1  Y   -0.000000   0.089342  -1.138036  -0.007569   0.000000
    9  CL 1  Z   -1.163850   0.000000   0.000000   0.000000  -0.062530
   10  CL 1  S   -0.080827   0.000000   0.000000   0.000000  -0.233416
   11  CL 1  X   -0.000000   1.287413   0.101232   0.030173   0.000000
   12  CL 1  Y   -0.000000  -0.101647   1.282149  -0.002382   0.000000
   13  CL 1  Z    1.385784   0.000000   0.000000   0.000000   0.178594
   14  CL 1 XX   -0.010143   0.000000   0.000000   0.000000  -0.203495
   15  CL 1 YY   -0.005463   0.000000   0.000000   0.000000  -0.150410
   16  CL 1 ZZ   -0.033846   0.000000   0.000000   0.000000   0.418316
   17  CL 1 XY    0.000429   0.000000   0.000000   0.000000   0.004870
   18  CL 1 XZ   -0.000000   0.075656   0.007348   0.757061   0.000000
   19  CL 1 YZ   -0.000000  -0.005973   0.093061  -0.059774   0.000000
   20  O  2  S    0.001651   0.000000   0.000000   0.000000  -0.009417
   21  O  2  S   -0.137378   0.000000   0.000000   0.000000  -1.027591
   22  O  2  X   -0.000000  -0.043277  -0.002406   0.567184   0.000000
   23  O  2  Y   -0.000000   0.003417  -0.030472  -0.044782   0.000000
   24  O  2  Z   -0.273477   0.000000   0.000000   0.000000   0.449457
   25  O  2  S    0.654618   0.000000   0.000000   0.000000   1.807873
   26  O  2  X   -0.000000  -0.138953  -0.011481  -0.494804   0.000000
   27  O  2  Y   -0.000000   0.010971  -0.145415   0.039067   0.000000
   28  O  2  Z    0.050079   0.000000   0.000000   0.000000  -0.577129
   29  O  2 XX   -0.073338   0.000000   0.000000   0.000000  -0.373108
   30  O  2 YY   -0.064374   0.000000   0.000000   0.000000  -0.354107
   31  O  2 ZZ    0.051915   0.000000   0.000000   0.000000  -0.300406
   32  O  2 XY    0.000822   0.000000   0.000000   0.000000   0.001743
   33  O  2 XZ   -0.000000  -0.041407  -0.003625  -0.151881   0.000000
   34  O  2 YZ   -0.000000   0.003269  -0.045911   0.011992   0.000000

                     21         22         23         24         25
                    1.0390     1.0976     1.0977     1.2490     1.3175
                     A          A          A          A          A   
    1  CL 1  S   -0.000000  -0.000000   0.000077   0.000000   0.000000
    2  CL 1  S   -0.000000  -0.000000  -0.001220   0.000000   0.000000
    3  CL 1  X   -0.002867  -0.000000  -0.000000  -0.022524  -0.001760
    4  CL 1  Y   -0.036308  -0.000000  -0.000000   0.001778  -0.022294
    5  CL 1  Z   -0.000000  -0.000000  -0.002965   0.000000   0.000000
    6  CL 1  S   -0.000000  -0.000000  -0.002210   0.000000   0.000000
    7  CL 1  X    0.010810  -0.000000  -0.000000   0.099008   0.007348
    8  CL 1  Y    0.136914  -0.000000  -0.000000  -0.007817   0.093066
    9  CL 1  Z   -0.000000   0.000000   0.012646   0.000000   0.000000
   10  CL 1  S   -0.000000  -0.000000   0.000849   0.000000   0.000000
   11  CL 1  X   -0.005521  -0.000000  -0.000000  -0.333193  -0.024846
   12  CL 1  Y   -0.069922  -0.000000  -0.000000   0.026307  -0.314684
   13  CL 1  Z   -0.000000   0.000000  -0.006090   0.000000   0.000000
   14  CL 1 XX   -0.000000   0.135436  -0.849262   0.000000   0.000000
   15  CL 1 YY   -0.000000  -0.135436   0.854425   0.000000   0.000000
   16  CL 1 ZZ   -0.000000  -0.000000  -0.006335   0.000000   0.000000
   17  CL 1 XY   -0.000000   0.984192   0.156298   0.000000   0.000000
   18  CL 1 XZ    0.066505  -0.000000  -0.000000   0.551211   0.032069
   19  CL 1 YZ    0.842313  -0.000000  -0.000000  -0.043521   0.406170
   20  O  2  S   -0.000000  -0.000000   0.000070   0.000000   0.000000
   21  O  2  S   -0.000000  -0.000000   0.027206   0.000000   0.000000
   22  O  2  X    0.037768  -0.000000  -0.000000  -0.756449  -0.072574
   23  O  2  Y    0.478354  -0.000000  -0.000000   0.059725  -0.919187
   24  O  2  Z   -0.000000  -0.000000  -0.024806   0.000000   0.000000
   25  O  2  S   -0.000000   0.000000  -0.045752   0.000000   0.000000
   26  O  2  X   -0.017484  -0.000000  -0.000000   1.033951   0.082295
   27  O  2  Y   -0.221448  -0.000000  -0.000000  -0.081635   1.042309
   28  O  2  Z   -0.000000   0.000000   0.031167   0.000000   0.000000
   29  O  2 XX   -0.000000   0.008134  -0.040333   0.000000   0.000000
   30  O  2 YY   -0.000000  -0.008134   0.061414   0.000000   0.000000
   31  O  2 ZZ   -0.000000  -0.000000   0.007705   0.000000   0.000000
   32  O  2 XY   -0.000000   0.059105   0.009334   0.000000   0.000000
   33  O  2 XZ   -0.013532  -0.000000  -0.000000  -0.192813  -0.012860
   34  O  2 YZ   -0.171391  -0.000000  -0.000000   0.015223  -0.162878

                     26         27         28         29         30
                    1.3590     1.4898     2.0753     2.0763     2.1947
                     A          A          A          A          A   
    1  CL 1  S    0.008106   0.009330  -0.000000   0.000905  -0.000000
    2  CL 1  S    0.019458   0.019498  -0.000000  -0.004422  -0.000000
    3  CL 1  X    0.000000   0.000000  -0.000000   0.000000   0.030606
    4  CL 1  Y    0.000000   0.000000  -0.000000   0.000000  -0.002416
    5  CL 1  Z    0.032353  -0.019819  -0.000000   0.005981  -0.000000
    6  CL 1  S    0.229407   0.321372  -0.000000   0.013780  -0.000000
    7  CL 1  X    0.000000   0.000000  -0.000000   0.000000  -0.086623
    8  CL 1  Y    0.000000   0.000000  -0.000000   0.000000   0.006839
    9  CL 1  Z   -0.245168   0.199482  -0.000000  -0.025880  -0.000000
   10  CL 1  S   -0.231017  -1.523447   0.000000   0.027429  -0.000000
   11  CL 1  X    0.000000   0.000000  -0.000000   0.000000  -0.130570
   12  CL 1  Y    0.000000   0.000000  -0.000000   0.000000   0.010309
   13  CL 1  Z    0.284925   1.113481  -0.000000  -0.014632  -0.000000
   14  CL 1 XX    0.415827   0.251006  -0.011916  -0.090220  -0.000000
   15  CL 1 YY    0.436662   0.246319   0.011916   0.059622  -0.000000
   16  CL 1 ZZ   -0.693332  -0.568209   0.000000   0.024589  -0.000000
   17  CL 1 XY    0.001911  -0.000430  -0.086594   0.013747  -0.000000
   18  CL 1 XZ    0.000000   0.000000  -0.000000   0.000000   0.424199
   19  CL 1 YZ    0.000000   0.000000  -0.000000   0.000000  -0.033493
   20  O  2  S   -0.030832  -0.096223   0.000000   0.004146  -0.000000
   21  O  2  S    0.180072  -1.206708   0.000000   0.005237  -0.000000
   22  O  2  X    0.000000   0.000000  -0.000000   0.000000  -0.110261
   23  O  2  Y    0.000000   0.000000  -0.000000   0.000000   0.008706
   24  O  2  Z    0.749975  -0.419513   0.000000   0.006249  -0.000000
   25  O  2  S    0.069180   3.255385  -0.000000  -0.046372  -0.000000
   26  O  2  X    0.000000   0.000000  -0.000000   0.000000   0.210436
   27  O  2  Y    0.000000   0.000000  -0.000000   0.000000  -0.016615
   28  O  2  Z   -0.599979   1.400681  -0.000000  -0.036825  -0.000000
   29  O  2 XX    0.022173  -0.238606   0.135716   0.859488  -0.000000
   30  O  2 YY    0.012569  -0.253417  -0.135716  -0.847709  -0.000000
   31  O  2 ZZ   -0.016584  -0.706073   0.000000  -0.024942  -0.000000
   32  O  2 XY   -0.000881  -0.001359   0.986225  -0.156620  -0.000000
   33  O  2 XZ    0.000000   0.000000  -0.000000   0.000000   0.992649
   34  O  2 YZ    0.000000   0.000000  -0.000000   0.000000  -0.078374

                     31         32         33         34
                    2.2191     2.7975     3.8188     4.6833
                     A          A          A          A   
    1  CL 1  S    0.000000  -0.032596   0.015818   0.167259
    2  CL 1  S    0.000000   0.142448  -0.063203  -0.788925
    3  CL 1  X    0.002478  -0.000000  -0.000000   0.000000
    4  CL 1  Y    0.031391  -0.000000  -0.000000   0.000000
    5  CL 1  Z    0.000000  -0.172693   0.006967  -0.038578
    6  CL 1  S    0.000000  -0.661036   0.449838   5.510653
    7  CL 1  X   -0.007042  -0.000000  -0.000000   0.000000
    8  CL 1  Y   -0.089187  -0.000000  -0.000000   0.000000
    9  CL 1  Z    0.000000   0.809600   0.083336   0.174259
   10  CL 1  S    0.000000  -0.740459  -0.728082   0.021878
   11  CL 1  X   -0.010151  -0.000000  -0.000000   0.000000
   12  CL 1  Y   -0.128569  -0.000000  -0.000000   0.000000
   13  CL 1  Z    0.000000   0.409534   0.528680  -0.013516
   14  CL 1 XX    0.000000   0.469260  -0.148762  -2.412577
   15  CL 1 YY    0.000000   0.471709  -0.149248  -2.412041
   16  CL 1 ZZ    0.000000  -0.544145  -0.208637  -2.592275
   17  CL 1 XY    0.000000   0.000225  -0.000045   0.000049
   18  CL 1 XZ    0.032839  -0.000000  -0.000000   0.000000
   19  CL 1 YZ    0.415922  -0.000000  -0.000000   0.000000
   20  O  2  S    0.000000  -0.038551  -0.457152   0.027495
   21  O  2  S    0.000000  -0.734673   0.319134  -0.150991
   22  O  2  X   -0.009286  -0.000000  -0.000000   0.000000
   23  O  2  Y   -0.117610  -0.000000  -0.000000   0.000000
   24  O  2  Z    0.000000  -0.218512  -0.147399  -0.001448
   25  O  2  S    0.000000   1.737284   3.495640  -0.100271
   26  O  2  X    0.016443  -0.000000  -0.000000   0.000000
   27  O  2  Y    0.208262  -0.000000  -0.000000   0.000000
   28  O  2  Z    0.000000   1.120478   0.572357   0.177863
   29  O  2 XX    0.000000  -0.636047  -1.584976   0.011859
   30  O  2 YY    0.000000  -0.673400  -1.577611   0.010780
   31  O  2 ZZ    0.000000   1.021069  -1.328351   0.387107
   32  O  2 XY    0.000000  -0.003427   0.000676  -0.000099
   33  O  2 XZ    0.078508  -0.000000  -0.000000   0.000000
   34  O  2 YZ    0.994342  -0.000000  -0.000000   0.000000
 ...... END OF UHF CALCULATION ......
 STEP CPU TIME =     0.01 TOTAL CPU TIME =          0.0 (      0.0 MIN)
 TOTAL WALL CLOCK TIME=          0.0 SECONDS, CPU UTILIZATION IS    97.91%

     ----------------------------------------------------------------
     PROPERTY VALUES FOR THE UHF   SELF-CONSISTENT FIELD WAVEFUNCTION
     ----------------------------------------------------------------

          -----------------
          ENERGY COMPONENTS
          -----------------

         WAVEFUNCTION NORMALIZATION =       1.0000000000

                ONE ELECTRON ENERGY =    -826.7636646728
                TWO ELECTRON ENERGY =     247.7949212356
           NUCLEAR REPULSION ENERGY =      44.7366418147
                                      ------------------
                       TOTAL ENERGY =    -534.2321016225

 ELECTRON-ELECTRON POTENTIAL ENERGY =     247.7949212356
  NUCLEUS-ELECTRON POTENTIAL ENERGY =   -1360.5760537713
   NUCLEUS-NUCLEUS POTENTIAL ENERGY =      44.7366418147
                                      ------------------
             TOTAL POTENTIAL ENERGY =   -1068.0444907209
               TOTAL KINETIC ENERGY =     533.8123890985
                 VIRIAL RATIO (V/T) =       2.0007862547

  ...... PI ENERGY ANALYSIS ......

 ENERGY ANALYSIS:
            FOCK ENERGY=   -331.1738232187
          BARE H ENERGY=   -826.7636646728
     ELECTRONIC ENERGY =   -578.9687439457
         KINETIC ENERGY=    533.8123890985
          N-N REPULSION=     44.7366418147
           TOTAL ENERGY=   -534.2321021310
        SIGMA PART(1+2)=   -445.1808788511
               (K,V1,2)=    434.3008618397  -1029.8184298330    150.3366891422
           PI PART(1+2)=   -133.7878650946
               (K,V1,2)=     99.5115272588   -330.7576239382     97.4582315849
  SIGMA SKELETON, ERROR=   -400.4442370364     -0.0000000000
             MIXED PART= 0.00000E+00 0.00000E+00 0.00000E+00 0.00000E+00
 ...... END OF PI ENERGY ANALYSIS ......

          ---------------------------------------
          MULLIKEN AND LOWDIN POPULATION ANALYSES
          ---------------------------------------

     ATOMIC MULLIKEN POPULATION IN EACH MOLECULAR ORBITAL
        ALPHA ORBITALS

                      1          2          3          4          5

                  1.000000   1.000000   1.000000   1.000000   1.000000

    1             1.000000  -0.000009   1.000175   1.000000   1.000252
    2            -0.000000   1.000009  -0.000175  -0.000000  -0.000252

                      6          7          8          9         10

                  1.000000   1.000000   1.000000   1.000000   1.000000

    1             1.000000   0.168183   0.769790   0.132606   0.243283
    2            -0.000000   0.831817   0.230210   0.867394   0.756717

                     11         12         13

                  1.000000   1.000000   1.000000

    1             0.409464   0.872486   0.763355
    2             0.590536   0.127514   0.236645

     ATOMIC MULLIKEN POPULATION IN EACH MOLECULAR ORBITAL
         BETA ORBITALS

                      1          2          3          4          5

                  1.000000   1.000000   1.000000   1.000000   1.000000

    1             1.000000   0.000017   1.000175   1.000241   1.000000
    2            -0.000000   0.999983  -0.000175  -0.000241   0.000000

                      6          7          8          9         10

                  1.000000   1.000000   1.000000   1.000000   1.000000

    1             1.000000   0.337195   0.649373   0.348168   0.450745
    2            -0.000000   0.662805   0.350627   0.651832   0.549255

                     11         12

                  1.000000   1.000000

    1             0.914082   0.659146
    2             0.085918   0.340854

     ATOMIC SPIN POPULATION (ALPHA MINUS BETA)
       ATOM         MULL.POP.                    LOW.POP.
    1 CL            0.000442                     0.020844
    2 O             0.999558                     0.979156


          ********* ALL ELECTRONS ********

               ----- POPULATIONS IN EACH AO -----
                             MULLIKEN      LOWDIN
              1  CL 1  S      1.99890     1.99846
              2  CL 1  S      1.99847     1.98150
              3  CL 1  X      1.99557     1.97869
              4  CL 1  Y      1.99498     1.97583
              5  CL 1  Z      1.99000     1.95417
              6  CL 1  S      1.39032     0.65038
              7  CL 1  X      1.38500     1.29252
              8  CL 1  Y      1.30751     1.21554
              9  CL 1  Z      0.74691     0.68350
             10  CL 1  S      0.53557     0.49502
             11  CL 1  X      0.61790     0.71340
             12  CL 1  Y      0.60925     0.69987
             13  CL 1  Z      0.08131     0.26612
             14  CL 1 XX      0.00361     0.26650
             15  CL 1 YY      0.00531     0.26774
             16  CL 1 ZZ      0.03520     0.26688
             17  CL 1 XY      0.00000     0.00000
             18  CL 1 XZ      0.01489     0.01931
             19  CL 1 YZ      0.00802     0.00958
             20  O  2  S      1.99589     1.97888
             21  O  2  S      0.98233     0.79015
             22  O  2  X      1.23690     1.21203
             23  O  2  Y      0.69343     0.67194
             24  O  2  Z      0.72737     0.69029
             25  O  2  S      0.96158     0.53066
             26  O  2  X      0.73856     0.76664
             27  O  2  Y      0.38639     0.42095
             28  O  2  Z      0.49676     0.58622
             29  O  2 XX      0.00772     0.19119
             30  O  2 YY      0.00376     0.18820
             31  O  2 ZZ      0.03896     0.21412
             32  O  2 XY      0.00002     0.00002
             33  O  2 XZ      0.00498     0.01122
             34  O  2 YZ      0.00661     0.01248

          ----- MULLIKEN ATOMIC OVERLAP POPULATIONS -----
          (OFF-DIAGONAL ELEMENTS NEED TO BE MULTIPLIED BY 2)

             1           2

    1   16.6657204
    2    0.0530066   8.2282665

          TOTAL MULLIKEN AND LOWDIN ATOMIC POPULATIONS
       ATOM         MULL.POP.    CHARGE          LOW.POP.     CHARGE
    1 CL           16.718727    0.281273        16.735014    0.264986
    2 O             8.281273   -0.281273         8.264986   -0.264986

          -------------------------------
          BOND ORDER AND VALENCE ANALYSIS     BOND ORDER THRESHOLD=0.050
          -------------------------------

                   BOND                       BOND                       BOND
  ATOM PAIR DIST  ORDER      ATOM PAIR DIST  ORDER      ATOM PAIR DIST  ORDER
    1   2  1.609  1.015

                       TOTAL       BONDED        FREE
      ATOM            VALENCE     VALENCE     VALENCE
    1 CL                1.041       1.015       0.026
    2 O                 1.877       1.015       0.862

          -----------------------------------------
          ATOMIC SPIN DENSITY AT THE NUCLEUS (A.U.)
          -----------------------------------------
                            SPIN DENS    ALPHA DENS     BETA DENS
    1  CL          17.0     0.0488127    1511.63692    1511.58811
    2  O            8.0     0.1372748     145.76339     145.62612

          ---------------------
          ELECTROSTATIC MOMENTS
          ---------------------

 POINT   1           X           Y           Z (BOHR)    CHARGE
                 0.000000    0.000000    0.024169       -0.00 (A.U.)
         DX          DY          DZ         /D/  (DEBYE)
     0.000000    0.000000    0.886119    0.886119
 ...... END OF PROPERTY EVALUATION ......
 STEP CPU TIME =     0.00 TOTAL CPU TIME =          0.0 (      0.0 MIN)
 TOTAL WALL CLOCK TIME=          0.0 SECONDS, CPU UTILIZATION IS    98.03%

 BEGINNING ONE ELECTRON GRADIENT...
 ..... END OF 1-ELECTRON GRADIENT ......
 STEP CPU TIME =     0.00 TOTAL CPU TIME =          0.0 (      0.0 MIN)
 TOTAL WALL CLOCK TIME=          0.0 SECONDS, CPU UTILIZATION IS    98.08%

          ----------------------
          GRADIENT OF THE ENERGY
          ----------------------

 THE MINIMUM MEMORY REQUIRED FOR THIS RUN IS      75631 WORDS.
 USING     990181 WORDS FOR 2E- DERIVATIVE INTEGRAL CONTRIBUTIONS.
 THE COARSE/FINE SCHWARZ SCREENINGS SKIPPED            0/           0 BLOCKS.
 THE NUMBER OF GRADIENT INTEGRAL BLOCKS COMPUTED WAS       832
 ...... END OF 2-ELECTRON GRADIENT ......
 STEP CPU TIME =     0.02 TOTAL CPU TIME =          0.0 (      0.0 MIN)
 TOTAL WALL CLOCK TIME=          0.0 SECONDS, CPU UTILIZATION IS    99.01%

          NSERCH=  0     ENERGY=    -534.2321016

                                 -----------------------
                                 GRADIENT (HARTREE/BOHR)
                                 -----------------------
        ATOM     ZNUC       DE/DX         DE/DY         DE/DZ
 --------------------------------------------------------------
    1  CL          17.0     0.0000000     0.0000000    -0.0069216
    2  O            8.0     0.0000000     0.0000000     0.0069216

          MAXIMUM GRADIENT = 0.0069216    RMS GRADIENT = 0.0039962

 NSERCH:   0  E=     -534.2321016225  GRAD. MAX=  0.0069216  R.M.S.=  0.0039962

          FORCE CONSTANT MATRIX NOT UPDATED --- TAKING FIRST STEP
          MIN SEARCH, CORRECT HESSIAN, TRYING PURE NR STEP
               NR STEP HAS LENGTH         =   0.012543
          RADIUS OF STEP TAKEN=   0.01254  CURRENT TRUST RADIUS=   0.30000

 BEGINNING GEOMETRY SEARCH POINT NSERCH=   1 ...

 COORDINATES OF ALL ATOMS ARE (ANGS)
   ATOM   CHARGE       X              Y              Z
 ------------------------------------------------------------
 CL         17.0   0.0000000000   0.0000000000   0.5223734747
 O           8.0   0.0000000000   0.0000000000  -1.0957194747

          INTERNUCLEAR DISTANCES (ANGS.)
          ------------------------------

                1 CL         2 O     

   1 CL      0.0000000    1.6180929 *
   2 O       1.6180929 *  0.0000000  

  * ... LESS THAN  3.000

 ...... END OF ONE-ELECTRON INTEGRALS ......
 STEP CPU TIME =     0.00 TOTAL CPU TIME =          0.0 (      0.0 MIN)
 TOTAL WALL CLOCK TIME=          0.0 SECONDS, CPU UTILIZATION IS    99.01%
 TOTAL NUMBER OF NONZERO TWO-ELECTRON INTEGRALS =               45899
          4 INTEGRAL RECORDS WERE STORED ON DISK FILE  8.
  ...... END OF TWO-ELECTRON INTEGRALS .....
 STEP CPU TIME =     0.00 TOTAL CPU TIME =          0.1 (      0.0 MIN)
 TOTAL WALL CLOCK TIME=          0.1 SECONDS, CPU UTILIZATION IS    99.01%

          ---------------------------
                  UHF SCF CALCULATION
          ---------------------------
     DENSITY MATRIX CONV=  1.00E-05

 ITER EX      TOTAL ENERGY        E CHANGE  DENSITY CHANGE    ORB. GRAD 
          ---------------START SECOND ORDER SCF---------------
   1  0     -534.2321270590  -534.2321270590   0.002985186   0.001803012
   2  1     -534.2321679375    -0.0000408785   0.001912401   0.000850189
   3  2     -534.2321746047    -0.0000066672   0.000574937   0.000431109
   4  3     -534.2321757769    -0.0000011722   0.000727045   0.000249602
   5  4     -534.2321763141    -0.0000005372   0.000647217   0.000213451
   6  5     -534.2321765233    -0.0000002092   0.000494947   0.000104891
   7  6     -534.2321766172    -0.0000000939   0.000239273   0.000057555
   8  7     -534.2321766488    -0.0000000316   0.000097903   0.000033005
   9  8     -534.2321766576    -0.0000000088   0.000048369   0.000016848
  10  9     -534.2321766595    -0.0000000019   0.000016831   0.000004550
  11 10     -534.2321766598    -0.0000000003   0.000003743   0.000001699
  12 11     -534.2321766598    -0.0000000000   0.000001203   0.000000427

          -----------------
          DENSITY CONVERGED
          -----------------
     TIME TO FORM FOCK OPERATORS=       0.0 SECONDS (       0.0 SEC/ITER)
     TIME TO SOLVE SCF EQUATIONS=       0.0 SECONDS (       0.0 SEC/ITER)

 FINAL UHF ENERGY IS     -534.2321766598 AFTER  12 ITERATIONS

          --------------------
          SPIN SZ   =    0.500
          S-SQUARED =    0.765
          --------------------

 LZ VALUE ANALYSIS FOR THE MOS
 ----------------------------------------
 MO     1 (    1) HAS LZ(WEIGHT)= 0.00(100.0%) 
 MO     2 (    2) HAS LZ(WEIGHT)= 0.00(100.0%) 
 MO     3 (    3) HAS LZ(WEIGHT)= 0.00(100.0%) 
 MO     4 (    4) HAS LZ(WEIGHT)= 0.00(100.0%) 
 MO     5 (    5) HAS LZ(WEIGHT)= 0.00(100.0%) 
 MO     6 (    6) HAS LZ(WEIGHT)= 0.00(100.0%) 
 MO     7 (    7) HAS LZ(WEIGHT)= 0.00(100.0%) 
 MO     8 (    8) HAS LZ(WEIGHT)= 0.00(100.0%) 
 MO     9 (    9) HAS LZ(WEIGHT)= 0.00(100.0%) 
 MO    10 (   10) HAS LZ(WEIGHT)= 0.00(100.0%) 
 MO    11 (   11) HAS LZ(WEIGHT)= 0.00(100.0%) 
 MO    12 (   12) HAS LZ(WEIGHT)= 0.00(100.0%) 
 MO    13 (   13) HAS LZ(WEIGHT)= 0.00(100.0%) 
 MO    14 (   14) HAS LZ(WEIGHT)= 0.00(100.0%) 
 MO    15 (   15) HAS LZ(WEIGHT)= 0.00(100.0%) 
 MO    16 (   16) HAS LZ(WEIGHT)= 0.00(100.0%) 
 MO    17 (   17) HAS LZ(WEIGHT)= 0.00(100.0%) 
 MO    18 (   18) HAS LZ(WEIGHT)= 0.00(100.0%) 
 MO    19 (   19) HAS LZ(WEIGHT)= 0.00(100.0%) 
 MO    20 (   20) HAS LZ(WEIGHT)= 0.00(100.0%) 
 MO    21 (   21) HAS LZ(WEIGHT)= 0.00(100.0%) 
 MO    22 (   22) HAS LZ(WEIGHT)= 0.00(100.0%) 
 MO    23 (   23) HAS LZ(WEIGHT)= 0.00(100.0%) 
 MO    24 (   24) HAS LZ(WEIGHT)= 0.00(100.0%) 
 MO    25 (   25) HAS LZ(WEIGHT)= 0.00(100.0%) 
 MO    26 (   26) HAS LZ(WEIGHT)= 0.00(100.0%) 
 MO    27 (   27) HAS LZ(WEIGHT)= 0.00(100.0%) 
 MO    28 (   28) HAS LZ(WEIGHT)= 0.00(100.0%) 
 MO    29 (   29) HAS LZ(WEIGHT)= 0.00(100.0%) 
 MO    30 (   30) HAS LZ(WEIGHT)= 0.00(100.0%) 
 MO    31 (   31) HAS LZ(WEIGHT)= 0.00(100.0%) 
 MO    32 (   32) HAS LZ(WEIGHT)= 0.00(100.0%) 
 MO    33 (   33) HAS LZ(WEIGHT)= 0.00(100.0%) 
 MO    34 (   34) HAS LZ(WEIGHT)= 0.00(100.0%) 

 LZ VALUE ANALYSIS FOR THE MOS
 ----------------------------------------
 MO     1 (    1) HAS LZ(WEIGHT)= 0.00(100.0%) 
 MO     2 (    2) HAS LZ(WEIGHT)= 0.00(100.0%) 
 MO     3 (    3) HAS LZ(WEIGHT)= 0.00(100.0%) 
 MO     4 (    4) HAS LZ(WEIGHT)= 0.00(100.0%) 
 MO     5 (    5) HAS LZ(WEIGHT)= 0.00(100.0%) 
 MO     6 (    6) HAS LZ(WEIGHT)= 0.00(100.0%) 
 MO     7 (    7) HAS LZ(WEIGHT)= 0.00(100.0%) 
 MO     8 (    8) HAS LZ(WEIGHT)= 0.00(100.0%) 
 MO     9 (    9) HAS LZ(WEIGHT)= 0.00(100.0%) 
 MO    10 (   10) HAS LZ(WEIGHT)= 0.00(100.0%) 
 MO    11 (   11) HAS LZ(WEIGHT)= 0.00(100.0%) 
 MO    12 (   12) HAS LZ(WEIGHT)= 0.00(100.0%) 
 MO    13 (   13) HAS LZ(WEIGHT)= 0.00(100.0%) 
 MO    14 (   14) HAS LZ(WEIGHT)= 0.00(100.0%) 
 MO    15 (   15) HAS LZ(WEIGHT)= 0.00(100.0%) 
 MO    16 (   16) HAS LZ(WEIGHT)= 0.00(100.0%) 
 MO    17 (   17) HAS LZ(WEIGHT)= 0.00(100.0%) 
 MO    18 (   18) HAS LZ(WEIGHT)= 0.00(100.0%) 
 MO    19 (   19) HAS LZ(WEIGHT)= 0.00(100.0%) 
 MO    20 (   20) HAS LZ(WEIGHT)= 0.00(100.0%) 
 MO    21 (   21) HAS LZ(WEIGHT)= 0.00(100.0%) 
 MO    22 (   22) HAS LZ(WEIGHT)= 0.00(100.0%) 
 MO    23 (   23) HAS LZ(WEIGHT)= 0.00(100.0%) 
 MO    24 (   24) HAS LZ(WEIGHT)= 0.00(100.0%) 
 MO    25 (   25) HAS LZ(WEIGHT)= 0.00(100.0%) 
 MO    26 (   26) HAS LZ(WEIGHT)= 0.00(100.0%) 
 MO    27 (   27) HAS LZ(WEIGHT)= 0.00(100.0%) 
 MO    28 (   28) HAS LZ(WEIGHT)= 0.00(100.0%) 
 MO    29 (   29) HAS LZ(WEIGHT)= 0.00(100.0%) 
 MO    30 (   30) HAS LZ(WEIGHT)= 0.00(100.0%) 
 MO    31 (   31) HAS LZ(WEIGHT)= 0.00(100.0%) 
 MO    32 (   32) HAS LZ(WEIGHT)= 0.00(100.0%) 
 MO    33 (   33) HAS LZ(WEIGHT)= 0.00(100.0%) 
 MO    34 (   34) HAS LZ(WEIGHT)= 0.00(100.0%) 
 ...... END OF UHF CALCULATION ......
 STEP CPU TIME =     0.01 TOTAL CPU TIME =          0.1 (      0.0 MIN)
 TOTAL WALL CLOCK TIME=          0.1 SECONDS, CPU UTILIZATION IS    99.07%
 ..... END OF 1-ELECTRON GRADIENT ......
 STEP CPU TIME =     0.00 TOTAL CPU TIME =          0.1 (      0.0 MIN)
 TOTAL WALL CLOCK TIME=          0.1 SECONDS, CPU UTILIZATION IS    99.08%
 ...... END OF 2-ELECTRON GRADIENT ......
 STEP CPU TIME =     0.02 TOTAL CPU TIME =          0.1 (      0.0 MIN)
 TOTAL WALL CLOCK TIME=          0.1 SECONDS, CPU UTILIZATION IS    99.33%

          NSERCH=  1     ENERGY=    -534.2321767

                                 -----------------------
                                 GRADIENT (HARTREE/BOHR)
                                 -----------------------
        ATOM     ZNUC       DE/DX         DE/DY         DE/DZ
 --------------------------------------------------------------
    1  CL          17.0     0.0000000     0.0000000    -0.0015873
    2  O            8.0     0.0000000     0.0000000     0.0015873

          MAXIMUM GRADIENT = 0.0015873    RMS GRADIENT = 0.0009164

 NSERCH:   1  E=     -534.2321766598  GRAD. MAX=  0.0015873  R.M.S.=  0.0009164

          HESSIAN UPDATED USING THE BFGS FORMULA
             ACTUAL ENERGY CHANGE WAS  -0.0000750373
          PREDICTED ENERGY CHANGE WAS  -0.0000613902 RATIO=  1.222
          MIN SEARCH, CORRECT HESSIAN, TRYING PURE NR STEP
               NR STEP HAS LENGTH         =   0.003732
          RADIUS OF STEP TAKEN=   0.00373  CURRENT TRUST RADIUS=   0.05000

 BEGINNING GEOMETRY SEARCH POINT NSERCH=   2 ...

 COORDINATES OF ALL ATOMS ARE (ANGS)
   ATOM   CHARGE       X              Y              Z
 ------------------------------------------------------------
 CL         17.0   0.0000000000   0.0000000000   0.5237700265
 O           8.0   0.0000000000   0.0000000000  -1.0971160265

          INTERNUCLEAR DISTANCES (ANGS.)
          ------------------------------

                1 CL         2 O     

   1 CL      0.0000000    1.6208861 *
   2 O       1.6208861 *  0.0000000  

  * ... LESS THAN  3.000

 ...... END OF ONE-ELECTRON INTEGRALS ......
 STEP CPU TIME =     0.00 TOTAL CPU TIME =          0.1 (      0.0 MIN)
 TOTAL WALL CLOCK TIME=          0.1 SECONDS, CPU UTILIZATION IS    99.34%
 TOTAL NUMBER OF NONZERO TWO-ELECTRON INTEGRALS =               45893
          4 INTEGRAL RECORDS WERE STORED ON DISK FILE  8.
  ...... END OF TWO-ELECTRON INTEGRALS .....
 STEP CPU TIME =     0.00 TOTAL CPU TIME =          0.1 (      0.0 MIN)
 TOTAL WALL CLOCK TIME=          0.1 SECONDS, CPU UTILIZATION IS    99.33%

          ---------------------------
                  UHF SCF CALCULATION
          ---------------------------
     DENSITY MATRIX CONV=  1.00E-05

 ITER EX      TOTAL ENERGY        E CHANGE  DENSITY CHANGE    ORB. GRAD 
          ---------------START SECOND ORDER SCF---------------
   1  0     -534.2321766613  -534.2321766613   0.000886304   0.000527994
   2  1     -534.2321802150    -0.0000035537   0.000571293   0.000249611
   3  2     -534.2321807957    -0.0000005807   0.000176790   0.000124924
   4  3     -534.2321809008    -0.0000001051   0.000234710   0.000077181
   5  4     -534.2321809517    -0.0000000510   0.000210798   0.000066060
   6  5     -534.2321809723    -0.0000000206   0.000157635   0.000032136
   7  6     -534.2321809815    -0.0000000092   0.000071432   0.000018232
   8  7     -534.2321809844    -0.0000000030   0.000029954   0.000009516
   9  8     -534.2321809852    -0.0000000008   0.000014706   0.000004860
  10  9     -534.2321809854    -0.0000000002   0.000004868   0.000001329

          -----------------
          DENSITY CONVERGED
          -----------------
     TIME TO FORM FOCK OPERATORS=       0.0 SECONDS (       0.0 SEC/ITER)
     TIME TO SOLVE SCF EQUATIONS=       0.0 SECONDS (       0.0 SEC/ITER)

 FINAL UHF ENERGY IS     -534.2321809854 AFTER  10 ITERATIONS

          --------------------
          SPIN SZ   =    0.500
          S-SQUARED =    0.766
          --------------------

 LZ VALUE ANALYSIS FOR THE MOS
 ----------------------------------------
 MO     1 (    1) HAS LZ(WEIGHT)= 0.00(100.0%) 
 MO     2 (    2) HAS LZ(WEIGHT)= 0.00(100.0%) 
 MO     3 (    3) HAS LZ(WEIGHT)= 0.00(100.0%) 
 MO     4 (    4) HAS LZ(WEIGHT)= 0.00(100.0%) 
 MO     5 (    5) HAS LZ(WEIGHT)= 0.00(100.0%) 
 MO     6 (    6) HAS LZ(WEIGHT)= 0.00(100.0%) 
 MO     7 (    7) HAS LZ(WEIGHT)= 0.00(100.0%) 
 MO     8 (    8) HAS LZ(WEIGHT)= 0.00(100.0%) 
 MO     9 (    9) HAS LZ(WEIGHT)= 0.00(100.0%) 
 MO    10 (   10) HAS LZ(WEIGHT)= 0.00(100.0%) 
 MO    11 (   11) HAS LZ(WEIGHT)= 0.00(100.0%) 
 MO    12 (   12) HAS LZ(WEIGHT)= 0.00(100.0%) 
 MO    13 (   13) HAS LZ(WEIGHT)= 0.00(100.0%) 
[...]
   13  CL 1  Z    0.000021  -0.000066   0.000162  -0.004370   0.000000
   14  CL 1 XX   -0.006270  -0.000032  -0.001708   0.001381   0.000000
   15  CL 1 YY   -0.006273   0.000004  -0.001750   0.001252   0.000000
   16  CL 1 ZZ   -0.006299   0.000246  -0.000341  -0.001046   0.000000
   17  CL 1 XY   -0.000000   0.000003  -0.000004  -0.000012   0.000000
   18  CL 1 XZ    0.000000   0.000000   0.000000   0.000000  -0.000483
   19  CL 1 YZ    0.000000   0.000000   0.000000   0.000000   0.000038
   20  O  2  S   -0.000012   0.995262  -0.000070   0.000056   0.000000
   21  O  2  S   -0.000080   0.019384   0.000330  -0.000657   0.000000
   22  O  2  X    0.000000   0.000000   0.000000   0.000000   0.000014
   23  O  2  Y    0.000000   0.000000   0.000000   0.000000  -0.000001
   24  O  2  Z   -0.000025   0.001182   0.000159  -0.000078   0.000000
   25  O  2  S    0.000115   0.002450  -0.000111   0.001463   0.000000
   26  O  2  X    0.000000   0.000000   0.000000   0.000000   0.000136
   27  O  2  Y    0.000000   0.000000   0.000000   0.000000  -0.000011
   28  O  2  Z   -0.000027  -0.000664  -0.001149   0.002759   0.000000
   29  O  2 XX   -0.000044  -0.002809   0.000168  -0.000490   0.000000
   30  O  2 YY   -0.000043  -0.003941   0.000199  -0.000482   0.000000
   31  O  2 ZZ    0.000054  -0.003358  -0.000919   0.001290   0.000000
   32  O  2 XY    0.000000  -0.000104   0.000003   0.000001   0.000000
   33  O  2 XZ    0.000000   0.000000   0.000000   0.000000  -0.000337
   34  O  2 YZ    0.000000   0.000000   0.000000   0.000000   0.000027

                      6          7          8          9         10
                   -8.0948    -1.3484    -1.0160    -0.6281    -0.6155
                     A          A          A          A          A   
    1  CL 1  S    0.000000   0.044673   0.068096   0.000000   0.013527
    2  CL 1  S    0.000000  -0.201708  -0.309145   0.000000  -0.066250
    3  CL 1  X   -0.078209   0.000000   0.000000   0.161211   0.000000
    4  CL 1  Y   -0.990558   0.000000   0.000000  -0.012728   0.000000
    5  CL 1  Z    0.000000   0.063989  -0.042121   0.000000  -0.202938
    6  CL 1  S    0.000000   0.389195   0.638212   0.000000   0.133011
    7  CL 1  X   -0.001581   0.000000   0.000000  -0.414114   0.000000
    8  CL 1  Y   -0.020030   0.000000   0.000000   0.032696   0.000000
    9  CL 1  Z    0.000000  -0.140471   0.098655   0.000000   0.515281
   10  CL 1  S    0.000000   0.095273   0.296364   0.000000   0.196576
   11  CL 1  X    0.000349   0.000000   0.000000  -0.178087   0.000000
   12  CL 1  Y    0.004417   0.000000   0.000000   0.014061   0.000000
   13  CL 1  Z    0.000000   0.012142   0.017199   0.000000   0.128818
   14  CL 1 XX    0.000000  -0.014379   0.007362   0.000000   0.023038
   15  CL 1 YY    0.000000  -0.013724   0.002276   0.000000   0.017051
   16  CL 1 ZZ    0.000000   0.047879  -0.010337   0.000000  -0.068299
   17  CL 1 XY    0.000000   0.000060  -0.000467   0.000000  -0.000549
   18  CL 1 XZ    0.000040   0.000000   0.000000   0.037499   0.000000
   19  CL 1 YZ    0.000506   0.000000   0.000000  -0.002961   0.000000
   20  O  2  S    0.000000  -0.174054   0.135419   0.000000  -0.056074
   21  O  2  S    0.000000   0.395258  -0.312770   0.000000   0.138098
   22  O  2  X    0.000006   0.000000   0.000000  -0.519263   0.000000
   23  O  2  Y    0.000077   0.000000   0.000000   0.040998   0.000000
   24  O  2  Z    0.000000   0.098663   0.104053   0.000000  -0.432300
   25  O  2  S    0.000000   0.380131  -0.384153   0.000000   0.194064
   26  O  2  X   -0.000010   0.000000   0.000000  -0.356899   0.000000
   27  O  2  Y   -0.000132   0.000000   0.000000   0.028179   0.000000
   28  O  2  Z    0.000000   0.065881   0.042109   0.000000  -0.315725
   29  O  2 XX    0.000000   0.007944  -0.011968   0.000000   0.014438
   30  O  2 YY    0.000000  -0.016972   0.010770   0.000000   0.003671
   31  O  2 ZZ    0.000000   0.038499  -0.000006   0.000000  -0.041432
   32  O  2 XY    0.000000  -0.002286   0.002086   0.000000  -0.000988
   33  O  2 XZ    0.000029   0.000000   0.000000  -0.028725   0.000000
   34  O  2 YZ    0.000371   0.000000   0.000000   0.002268   0.000000

                     11         12         13         14         15
                   -0.5200    -0.4449     0.0824     0.1391     0.4917
                     A          A          A          A          A   
    1  CL 1  S    0.000000   0.000000   0.000000  -0.019606   0.068433
    2  CL 1  S    0.000000   0.000000   0.000000   0.101307  -0.077075
    3  CL 1  X   -0.021244  -0.239482  -0.007481   0.000000   0.000000
    4  CL 1  Y   -0.269067   0.018908  -0.094747   0.000000   0.000000
    5  CL 1  Z    0.000000   0.000000   0.000000  -0.159354   0.006874
    6  CL 1  S    0.000000   0.000000   0.000000  -0.177488   1.397304
    7  CL 1  X    0.055247   0.638942   0.020601   0.000000   0.000000
    8  CL 1  Y    0.699728  -0.050448   0.260917   0.000000   0.000000
    9  CL 1  Z    0.000000   0.000000   0.000000   0.414250  -0.031051
   10  CL 1  S    0.000000   0.000000   0.000000  -0.538918  -1.991474
   11  CL 1  X    0.028669   0.350769   0.016441   0.000000   0.000000
   12  CL 1  Y    0.363111  -0.027695   0.208227   0.000000   0.000000
   13  CL 1  Z    0.000000   0.000000   0.000000   0.954078   0.350999
   14  CL 1 XX    0.000000   0.000000   0.000000  -0.058145   0.086028
   15  CL 1 YY    0.000000   0.000000   0.000000  -0.060864   0.082308
   16  CL 1 ZZ    0.000000   0.000000   0.000000   0.132432   0.184768
   17  CL 1 XY    0.000000   0.000000   0.000000  -0.000249  -0.000341
   18  CL 1 XZ   -0.002716   0.029321   0.006792   0.000000   0.000000
   19  CL 1 YZ   -0.034404  -0.002315   0.086018   0.000000   0.000000
   20  O  2  S    0.000000   0.000000   0.000000  -0.071576  -0.015887
   21  O  2  S    0.000000   0.000000   0.000000   0.098781   0.036382
   22  O  2  X    0.010036  -0.418899  -0.039290   0.000000   0.000000
   23  O  2  Y    0.127113   0.033074  -0.497625   0.000000   0.000000
   24  O  2  Z    0.000000   0.000000   0.000000   0.392817  -0.123572
   25  O  2  S    0.000000   0.000000   0.000000   0.779593   0.448857
   26  O  2  X    0.008577  -0.341430  -0.050551   0.000000   0.000000
   27  O  2  Y    0.108632   0.026958  -0.640254   0.000000   0.000000
   28  O  2  Z    0.000000   0.000000   0.000000   0.637615   0.187486
   29  O  2 XX    0.000000   0.000000   0.000000  -0.022937  -0.020395
   30  O  2 YY    0.000000   0.000000   0.000000  -0.031761  -0.019178
   31  O  2 ZZ    0.000000   0.000000   0.000000  -0.000977   0.078226
   32  O  2 XY    0.000000   0.000000   0.000000  -0.000810   0.000112
   33  O  2 XZ    0.002035  -0.004765  -0.002138   0.000000   0.000000
   34  O  2 YZ    0.025770   0.000376  -0.027078   0.000000   0.000000

                     16         17         18         19         20
                    0.5931     0.6027     0.6028     0.9826     1.0296
                     A          A          A          A          A   
    1  CL 1  S    0.003745   0.000000   0.000000   0.000000  -0.004225
    2  CL 1  S   -0.010910   0.000000   0.000000   0.000000  -0.009855
    3  CL 1  X    0.000000   0.286430  -0.022836   0.024883   0.000000
    4  CL 1  Y    0.000000  -0.022615  -0.289234  -0.001965   0.000000
    5  CL 1  Z   -0.305828   0.000000   0.000000   0.000000  -0.008666
    6  CL 1  S    0.050161   0.000000   0.000000   0.000000  -0.117945
    7  CL 1  X    0.000000  -1.132702   0.089904  -0.090820   0.000000
    8  CL 1  Y    0.000000   0.089432   1.138682   0.007171   0.000000
    9  CL 1  Z    1.159473   0.000000   0.000000   0.000000   0.051858
   10  CL 1  S    0.068405   0.000000   0.000000   0.000000   0.242617
   11  CL 1  X    0.000000   1.286645  -0.101239  -0.035253   0.000000
   12  CL 1  Y    0.000000  -0.101587  -1.282243   0.002783   0.000000
   13  CL 1  Z   -1.390393   0.000000   0.000000   0.000000  -0.181739
   14  CL 1 XX    0.013852   0.000000   0.000000   0.000000   0.203977
   15  CL 1 YY    0.009367   0.000000   0.000000   0.000000   0.153590
   16  CL 1 ZZ    0.026547   0.000000   0.000000   0.000000  -0.417181
   17  CL 1 XY   -0.000411   0.000000   0.000000   0.000000  -0.004623
   18  CL 1 XZ    0.000000   0.073927  -0.007229  -0.756907   0.000000
   19  CL 1 YZ    0.000000  -0.005837  -0.091562   0.059761   0.000000
   20  O  2  S   -0.000789   0.000000   0.000000   0.000000   0.010155
   21  O  2  S    0.135317   0.000000   0.000000   0.000000   1.039833
   22  O  2  X    0.000000  -0.045394   0.002597  -0.567400   0.000000
   23  O  2  Y    0.000000   0.003584   0.032893   0.044799   0.000000
   24  O  2  Z    0.268872   0.000000   0.000000   0.000000  -0.440012
   25  O  2  S   -0.655264   0.000000   0.000000   0.000000  -1.835728
   26  O  2  X    0.000000  -0.137397   0.011568   0.500329   0.000000
   27  O  2  Y    0.000000   0.010848   0.146516  -0.039503   0.000000
   28  O  2  Z   -0.060181   0.000000   0.000000   0.000000   0.553989
   29  O  2 XX    0.073185   0.000000   0.000000   0.000000   0.376694
   30  O  2 YY    0.064433   0.000000   0.000000   0.000000   0.357941
   31  O  2 ZZ   -0.051237   0.000000   0.000000   0.000000   0.302236
   32  O  2 XY   -0.000803   0.000000   0.000000   0.000000  -0.001720
   33  O  2 XZ    0.000000  -0.039797   0.003502   0.150174   0.000000
   34  O  2 YZ    0.000000   0.003142   0.044354  -0.011857   0.000000

                     21         22         23
                    1.0373     1.0982     1.0983
                     A          A          A   
    1  CL 1  S    0.000000  -0.000000  -0.000071
    2  CL 1  S    0.000000   0.000000   0.001135
    3  CL 1  X   -0.002777   0.000000   0.000000
    4  CL 1  Y   -0.035174   0.000000   0.000000
    5  CL 1  Z    0.000000   0.000000   0.002813
    6  CL 1  S    0.000000   0.000000   0.002148
    7  CL 1  X    0.010426   0.000000   0.000000
    8  CL 1  Y    0.132056   0.000000   0.000000
    9  CL 1  Z    0.000000  -0.000000  -0.011879
   10  CL 1  S    0.000000  -0.000000  -0.001340
   11  CL 1  X   -0.005086   0.000000   0.000000
   12  CL 1  Y   -0.064413   0.000000   0.000000
   13  CL 1  Z    0.000000   0.000000   0.006221
   14  CL 1 XX    0.000000   0.135475   0.849726
   15  CL 1 YY    0.000000  -0.135475  -0.854519
   16  CL 1 ZZ    0.000000   0.000000   0.005705
   17  CL 1 XY    0.000000   0.984461  -0.156351
   18  CL 1 XZ    0.066539   0.000000   0.000000
   19  CL 1 YZ    0.842752   0.000000   0.000000
   20  O  2  S    0.000000  -0.000000  -0.000110
   21  O  2  S    0.000000  -0.000000  -0.026541
   22  O  2  X    0.037851   0.000000   0.000000
   23  O  2  Y    0.479401   0.000000   0.000000
   24  O  2  Z    0.000000   0.000000   0.023533
   25  O  2  S    0.000000   0.000000   0.045170
   26  O  2  X   -0.018013   0.000000   0.000000
   27  O  2  Y   -0.228145   0.000000   0.000000
   28  O  2  Z    0.000000  -0.000000  -0.028945
   29  O  2 XX    0.000000   0.007839   0.038807
   30  O  2 YY    0.000000  -0.007839  -0.059263
   31  O  2 ZZ    0.000000  -0.000000  -0.007531
   32  O  2 XY    0.000000   0.056964  -0.008997
   33  O  2 XZ   -0.013381   0.000000   0.000000
   34  O  2 YZ   -0.169478   0.000000   0.000000

     ----------------------------------------------------------------
     PROPERTY VALUES FOR THE UHF   SELF-CONSISTENT FIELD WAVEFUNCTION
     ----------------------------------------------------------------

          -----------------
          ENERGY COMPONENTS
          -----------------

         WAVEFUNCTION NORMALIZATION =       1.0000000000

                ONE ELECTRON ENERGY =    -826.1053071044
                TWO ELECTRON ENERGY =     247.4726540671
           NUCLEAR REPULSION ENERGY =      44.4004720520
                                      ------------------
                       TOTAL ENERGY =    -534.2321809854

 ELECTRON-ELECTRON POTENTIAL ENERGY =     247.4726540671
  NUCLEUS-ELECTRON POTENTIAL ENERGY =   -1359.8961163079
   NUCLEUS-NUCLEUS POTENTIAL ENERGY =      44.4004720520
                                      ------------------
             TOTAL POTENTIAL ENERGY =   -1068.0229901889
               TOTAL KINETIC ENERGY =     533.7908092036
                 VIRIAL RATIO (V/T) =       2.0008268628

  ...... PI ENERGY ANALYSIS ......

 ENERGY ANALYSIS:
            FOCK ENERGY=   -331.1599972009
          BARE H ENERGY=   -826.1053071044
     ELECTRONIC ENERGY =   -578.6326521527
         KINETIC ENERGY=    533.7908092036
          N-N REPULSION=     44.4004720520
           TOTAL ENERGY=   -534.2321801007
        SIGMA PART(1+2)=   -444.9743495002
               (K,V1,2)=    434.2790573107  -1029.3940566366    150.1406498257
           PI PART(1+2)=   -133.6583026525
               (K,V1,2)=     99.5117518929   -330.5020596714     97.3320051260
  SIGMA SKELETON, ERROR=   -400.5738774482      0.0000000000
             MIXED PART= 0.00000E+00 0.00000E+00 0.00000E+00 0.00000E+00
 ...... END OF PI ENERGY ANALYSIS ......

          ---------------------------------------
          MULLIKEN AND LOWDIN POPULATION ANALYSES
          ---------------------------------------

     ATOMIC MULLIKEN POPULATION IN EACH MOLECULAR ORBITAL
        ALPHA ORBITALS

                      1          2          3          4          5

                  1.000000   1.000000   1.000000   1.000000   1.000000

    1             1.000000  -0.000009   1.000160   1.000000   1.000240
    2            -0.000000   1.000009  -0.000160   0.000000  -0.000240

                      6          7          8          9         10

                  1.000000   1.000000   1.000000   1.000000   1.000000

    1             1.000000   0.161927   0.775751   0.126616   0.237081
    2            -0.000000   0.838073   0.224249   0.873384   0.762919

                     11         12         13

                  1.000000   1.000000   1.000000

    1             0.406292   0.878088   0.769127
    2             0.593708   0.121912   0.230873

     ATOMIC MULLIKEN POPULATION IN EACH MOLECULAR ORBITAL
         BETA ORBITALS

                      1          2          3          4          5

                  1.000000   1.000000   1.000000   1.000000   1.000000

    1             1.000000   0.000016   1.000161   1.000229   1.000000
    2            -0.000000   0.999984  -0.000161  -0.000229   0.000000

                      6          7          8          9         10

                  1.000000   1.000000   1.000000   1.000000   1.000000

    1             1.000000   0.335843   0.650820   0.344745   0.454604
    2            -0.000000   0.664157   0.349180   0.655255   0.545396

                     11         12

                  1.000000   1.000000

    1             0.919268   0.662118
    2             0.080732   0.337882

     ATOMIC SPIN POPULATION (ALPHA MINUS BETA)
       ATOM         MULL.POP.                    LOW.POP.
    1 CL           -0.012531                     0.008528
    2 O             1.012531                     0.991472


          ********* ALL ELECTRONS ********

               ----- POPULATIONS IN EACH AO -----
                             MULLIKEN      LOWDIN
              1  CL 1  S      1.99890     1.99846
              2  CL 1  S      1.99847     1.98157
              3  CL 1  X      1.99557     1.97868
              4  CL 1  Y      1.99500     1.97595
              5  CL 1  Z      1.98998     1.95403
              6  CL 1  S      1.39145     0.65148
              7  CL 1  X      1.38416     1.29219
              8  CL 1  Y      1.31003     1.21853
              9  CL 1  Z      0.74344     0.68073
             10  CL 1  S      0.53553     0.49530
             11  CL 1  X      0.61882     0.71460
             12  CL 1  Y      0.61207     0.70293
             13  CL 1  Z      0.08543     0.26882
             14  CL 1 XX      0.00354     0.26682
             15  CL 1 YY      0.00523     0.26805
             16  CL 1 ZZ      0.03406     0.26645
             17  CL 1 XY      0.00000     0.00000
             18  CL 1 XZ      0.01397     0.01806
             19  CL 1 YZ      0.00743     0.00886
             20  O  2  S      1.99590     1.97891
             21  O  2  S      0.98361     0.79137
             22  O  2  X      1.23775     1.21257
             23  O  2  Y      0.69186     0.67039
             24  O  2  Z      0.72145     0.68442
             25  O  2  S      0.96264     0.53222
             26  O  2  X      0.73877     0.76706
             27  O  2  Y      0.38353     0.41770
             28  O  2  Z      0.50031     0.58745
             29  O  2 XX      0.00768     0.19159
             30  O  2 YY      0.00367     0.18855
             31  O  2 ZZ      0.03868     0.21376
             32  O  2 XY      0.00002     0.00002
             33  O  2 XZ      0.00477     0.01066
             34  O  2 YZ      0.00628     0.01184

          ----- MULLIKEN ATOMIC OVERLAP POPULATIONS -----
          (OFF-DIAGONAL ELEMENTS NEED TO BE MULTIPLIED BY 2)

             1           2

    1   16.6674957
    2    0.0555839   8.2213366

          TOTAL MULLIKEN AND LOWDIN ATOMIC POPULATIONS
       ATOM         MULL.POP.    CHARGE          LOW.POP.     CHARGE
    1 CL           16.723080    0.276920        16.741517    0.258483
    2 O             8.276920   -0.276920         8.258483   -0.258483

          -------------------------------
          BOND ORDER AND VALENCE ANALYSIS     BOND ORDER THRESHOLD=0.050
          -------------------------------

                   BOND                       BOND                       BOND
  ATOM PAIR DIST  ORDER      ATOM PAIR DIST  ORDER      ATOM PAIR DIST  ORDER
    1   2  1.621  1.007

                       TOTAL       BONDED        FREE
      ATOM            VALENCE     VALENCE     VALENCE
    1 CL                1.033       1.007       0.026
    2 O                 1.880       1.007       0.873

          -----------------------------------------
          ATOMIC SPIN DENSITY AT THE NUCLEUS (A.U.)
          -----------------------------------------
                            SPIN DENS    ALPHA DENS     BETA DENS
    1  CL          17.0     0.0497832    1511.64539    1511.59561
    2  O            8.0     0.1331922     145.76996     145.63677

          ---------------------
          ELECTROSTATIC MOMENTS
          ---------------------

 POINT   1           X           Y           Z (BOHR)    CHARGE
                 0.000000    0.000000    0.028454       -0.00 (A.U.)
         DX          DY          DZ         /D/  (DEBYE)
     0.000000    0.000000    0.869647    0.869647
 ...... END OF PROPERTY EVALUATION ......
 STEP CPU TIME =     0.00 TOTAL CPU TIME =          0.1 (      0.0 MIN)
 TOTAL WALL CLOCK TIME=          0.1 SECONDS, CPU UTILIZATION IS    99.48%
  $VIB   
          IVIB=   0 IATOM=   0 ICOORD=   0 E=     -534.2321809854
  0.000000000E+00 0.000000000E+00-5.621004737E-05 0.000000000E+00 0.000000000E+00
  5.621002707E-05
  0.000000000E+00 0.000000000E+00 8.696472068E-01
 ......END OF GEOMETRY SEARCH......
 STEP CPU TIME =     0.00 TOTAL CPU TIME =          0.1 (      0.0 MIN)
 TOTAL WALL CLOCK TIME=          0.1 SECONDS, CPU UTILIZATION IS    99.48%
               990205  WORDS OF DYNAMIC MEMORY USED
 EXECUTION OF GAMESS TERMINATED NORMALLY 19:56:10 20-OCT-2025    
----- accounting info -----
Files used on the parent node Macbooks-MacBook-Pro.local were:
-rw-r--r--  1 macbookpro  staff      241 Oct 20 19:56 /Users/macbookpro/local/gamess/scr/clo_q0m2_uhf_631g_star.F05
-rw-r--r--  1 macbookpro  staff   720064 Oct 20 19:56 /Users/macbookpro/local/gamess/scr/clo_q0m2_uhf_631g_star.F08
-rw-r--r--  1 macbookpro  staff  2094080 Oct 20 19:56 /Users/macbookpro/local/gamess/scr/clo_q0m2_uhf_631g_star.F10
-rw-r--r--  1 macbookpro  staff   107671 Oct 20 19:56 /Users/macbookpro/local/gamess/scr/clo_q0m2_uhf_631g_star.dat
Mon Oct 20 19:56:10 +07 2025
0.155u 0.052s 0:00.20 100.0%	0+0k 0+0io 46pf+0w
