1 : co2_q0m1_uhf_631g_star.inp
----- GAMESS execution script 'rungms' -----
This job is running on host Macbooks-MacBook-Pro.local
under operating system Darwin at Mon Oct 20 19:56:07 +07 2025
Available scratch disk space (Kbyte units) at beginning of the job is
Filesystem   1024-blocks      Used Available Capacity iused      ifree %iused  Mounted on
/dev/disk3s5   482797652 122173152 339920060    27% 1896357 3399200600    0%   /System/Volumes/Data
GAMESS temporary binary files will be written to /Users/macbookpro/local/gamess/scr
GAMESS supplementary output files will be written to /Users/macbookpro/local/gamess/scr
Copying input file /Users/macbookpro/sq2_data/co2_q0m1_uhf_631g_star.inp to your run's scratch directory...
          *******************************************************
          *                                                     *
          *          GAMESS VERSION = 30 JUN 2023 (R1)          *
          *                                                     *
          *              doi.org/10.1063/5.0005188              *
          *                                                     *
          **************** 64 BIT LINUX VERSION *****************

  GAMESS HAS BEEN MADE POSSIBLE WITH IMPORTANT CONTRIBUTIONS FROM
  THE FOLLOWING INDIVIDUALS (IN ALPHABETICAL ORDER):

     IVANA ADAMOVIC, CHRISTINE AIKENS, TOMOKO AKAMA,
     MELISA ALKAN, YURI ALEXEEV, YURIKO AOKI, POOJA ARORA,
     TOSHIO ASADA, ANDREY ASADCHEV, KIM K. BALDRIDGE,
     PRADIPTA BANDYOPADHYAY, TAYLOR A. BARNES, MARIA BARYSZ,
     ROB BELL, JONATHAN BENTZ, COLLEEN BERTONI,
     JERRY A. BOATZ, BRETT BODE, KURT BRORSEN, KURT R. BRORSEN,
     LAIMUTIS BYTAUTAS, CALEB CARLIN, LAURA CARRINGTON,
     GALINA CHABAN, BENOIT CHAMPAGNE, WEI CHEN, MAHITO CHIBA,
     DAN CHIPMAN, CHEOL HO CHOI, TANNER CULPITT,
     DIPAYAN DATTA, PAUL DAY, ALBERT DEFUSCO,
     NUWAN DESILVA, J. EMILIANO DEUSTUA,
     TIM DUDLEY, MICHEL DUPUIS, STEVEN T. ELBERT,
     DMITRI FEDOROV, KATHERINE FERRERAS, MICHAEL FILATOV,
     ALEX FINDLATER,GRAHAM FLETCHER, MARK FREITAG,
     CHRISTIAN FRIEDL, DAVID GARMER, 
     IGOR S. GERASIMOV, KURT GLAESEMANN,
     MARK S. GORDON, JEFFREY R. GOUR, FENG LONG GU,
     EMILIE B. GUIDEZ, ANASTASIA GUNINA, SHARON HAMMES-SCHIFFER,
     MASATAKE HARUTA, KIMIHIKO HIRAO, YASUHIRO IKABATA,
     TZVETELIN IORDANOV, STEPHAN IRLE, KAZUYA ISHIMURA,
     JOE IVANIC, FRANK JENSEN, JAN H. JENSEN, VISVALDAS KAIRYS,
     MUNEAKI KAMIYA, MICHIO KATOUDA, NAOAKI KAWAKAMI, DAN KEMP,
     BERNARD KIRTMAN, KAZUO KITAURA, MARIUSZ KLOBUKOWSKI,
     MASATO KOBAYASHI, KONSTANTIN KOMAROV, PRAKASHAN KORAMBATH,
     JACEK KORCHOWIEC, SHIRO KOSEKI, KAROL KOWALSKI,
     JIMMY KROMANN, STANISLAW A. KUCHARSKI, HENRY KURTZ,
     SAROM SOK LEANG, SEUNGHOON LEE, HUI LI, SHUHUA LI, WEI LI,
     JESSE J. LUTZ, ALEKSANDR O. LYKHIN,
     ILIAS MAGOULAS, MARCIN MAKOWSKI,
     JOANI MATO, NIKITA MATSUNAGA, BENEDETTA MENNUCCI,
     GRANT MERRILL, NORIYUKI MINEZAWA, VLADIMIR MIRONOV,
     EISAKU MIYOSHI, JOHN A. MONTGOMERY JR., HIROTOSHI MORI,
     JONATHAN MULLIN, MONIKA MUSIAL, SHIGERU NAGASE,
     TAKESHI NAGATA, HIROMI NAKAI, TAKAHITO NAKAJIMA,
     YUYA NAKAJIMA, HARUYUKI NAKANO, HIROYA NAKATA, SEAN NEDD,
     HEATHER NETZLOFF, KIET A. NGUYEN, YOSHIO NISHIMOTO,
     BOSILJKA NJEGIC, RYAN OLSON, MIKE PAK, ROBERTO PEVERATI,
     BUU PHAM, PIOTR PIECUCH, ANNA POMOGAEVA, DAVID POOLE,
     SPENCER PRUITT, OLIVIER QUINET, LUKE ROSKOP,
     KLAUS RUEDENBERG, ANDREW SAND, TOSAPORN SATTASATHUCHANA,
     NOZOMI SAWADA, MICHAEL W. SCHMIDT, PATRICK E. SCHNEIDER,
     JUNJI SEINO, PRACHI SHARMA, JUN SHEN, JIM SHOEMAKER,
     YINAN SHU, DEJUN SI, JONATHAN SKONE, LYUDMILA SLIPCHENKO,
     TONY SMITH, JIE SONG, MARK SPACKMAN, CASPER STEINMANN,
     WALT STEVENS, PEIFENG SU, SHUJUN SU, CHET SWALINA,
     CHINAMI TAKASHIMA, TETSUYA TAKETSUGU, ZHEN TAO,
     NANDUN THELLAMUREGE, SEIKEN TOKURA, JACOPO TOMASI,
     TSUGUKI TOUMA, TAKAO TSUNEDA, HIROAKI UMEDA,
     JORGE LUIS GALVEZ VALLEJO, YALI WANG, SIMON WEBB,
     AARON WEST, THERESA L. WINDUS, MARTA WLOCH,
     PENG XU, KIYOSHI YAGI, SUSUMU YANAGISAWA, YANG YANG,
     SOOHAENG YOO, TAKESHI YOSHIKAWA, FEDERICO ZAHARIEV,
     TOBY ZENG

  WHO ARE SUPPORTED BY THEIR INSTITUTION/UNIVERSITY/COMPANY/GROUP
  (IN ALPHABETICAL ORDER):

     EP ANALYTICS,
     FACULTES UNIVERSITAIRES NOTRE-DAME DE LA PAIX,
     INSTITUTE FOR MOLECULAR SCIENCE, IOWA STATE UNIVERSITY,
     JACKSON STATE UNIVERSITY, JOHANNES KEPLER UNIVERSITY LINZ,
     KYUNGPOOK NATIONAL UNIVERSITY
     KYUSHU UNIVERSITY, MICHIGAN STATE UNIVERSITY,
     MIE UNIVERSITY, THE MOLECULAR SCIENCES SOFTWARE INSTITUTE,
     MOSCOW STATE UNIVERSITY,
     N. COPERNICUS UNIVERSITY, NAGOYA UNIVERSITY,
     NANJING UNIVERSITY, NAT. INST. OF ADVANCED INDUSTRIAL
     SCIENCE AND TECHNOLOGY, NATIONAL INST. OF STANDARDS AND
     TECHNOLOGY, NESMEYANOV INSTITUTE OF ORGANOELEMENT COMPOUNDS
     OF RUSSIAN ACADEMY OF SCIENCES, OSAKA PREFECTURE UNIVERSITY,
     PENNSYLVANIA STATE UNIVERSITY, TOKYO INSTITUTE OF TECHNOLOGY,
     UNIVERSITY OF AARHUS, UNIVERSITY OF ALBERTA,
     UNIVERSITY OF CALIFORNIA AT SANTA BARBARA,
     UNIVERSITY OF COPENHAGEN, UNIVERSITY OF IOWA,
     UNIVERSITY OF MEMPHIS, UNIVERSITY OF MINNESOTA,
     UNIVERSITY OF NEBRASKA, UNIVERSITY OF NEW ENGLAND,
     UNIVERSITY OF NOTRE DAME, UNIVERSITY OF PISA,
     UNIVERSITY OF SILESIA, UNIVERSITY OF TOKYO,
     UNIVERSITY OF ZURICH, WASEDA UNIVERSITY,
     YALE UNIVERSITY

  GAMESS SOFTWARE MANAGEMENT TEAM FOR THIS RELEASE:
     MARK S. GORDON (TEAM LEAD),
     BRETT BODE (SENIOR ADVISOR),
     GIUSEPPE BARCA,
     COLLEEN BERTONI,
     KRISTOPHER KEIPERT (ADVISOR),
     SAROM S. LEANG (DEVELOPMENT LEAD),
     BUU PHAM,
     JACKSON HAYES (WEBSITE ADMINISTRATOR),
     PENG XU

 EXECUTION OF GAMESS BEGUN 19:56:07 20-OCT-2025    

            ECHO OF THE FIRST FEW INPUT CARDS -
 INPUT CARD> $CONTRL SCFTYP=UHF ICHARG=0 MULT=1                                             
 INPUT CARD> RUNTYP=OPTIMIZE                                                                
 INPUT CARD> $END                                                                           
 INPUT CARD> $BASIS GBASIS=N31 NGAUSS=6 NDFUNC=1 $END                                       
 INPUT CARD> $DATA                                                                          
 INPUT CARD> ... this is comment ...                                                        
 INPUT CARD> C1                                                                             
 INPUT CARD> C     6  -0.00000000   0.00000000   0.00000000                                 
 INPUT CARD> O     8   0.00000000  -0.00000000   1.17969244                                 
 INPUT CARD> O     8   0.00000000  -0.00000000  -1.17969244                                 
 INPUT CARD> $END                                                                           
 INPUT CARD>                                                                                
      1000000 WORDS OF MEMORY AVAILABLE

     BASIS OPTIONS
     -------------
     GBASIS=N31          IGAUSS=       6      POLAR=POPN31  
     NDFUNC=       1     NFFUNC=       0     DIFFSP=       F
     NPFUNC=       0      DIFFS=       F     BASNAM=        


     RUN TITLE
     ---------
  ... this is comment ...                                                        

 THE POINT GROUP OF THE MOLECULE IS C1      
 THE ORDER OF THE PRINCIPAL AXIS IS     0

 ATOM      ATOMIC                      COORDINATES (BOHR)
           CHARGE         X                   Y                   Z
 C           6.0    -0.0000000000        0.0000000000        0.0000000000
 O           8.0     0.0000000000       -0.0000000000        2.2292954614
 O           8.0     0.0000000000       -0.0000000000       -2.2292954614

          INTERNUCLEAR DISTANCES (ANGS.)
          ------------------------------

                1 C          2 O          3 O     

   1 C       0.0000000    1.1796924 *  1.1796924 *
   2 O       1.1796924 *  0.0000000    2.3593849 *
   3 O       1.1796924 *  2.3593849 *  0.0000000  

  * ... LESS THAN  3.000


     ATOMIC BASIS SET
     ----------------
 THE CONTRACTED PRIMITIVE FUNCTIONS HAVE BEEN UNNORMALIZED
 THE CONTRACTED BASIS FUNCTIONS ARE NOW NORMALIZED TO UNITY

  SHELL TYPE  PRIMITIVE        EXPONENT          CONTRACTION COEFFICIENT(S)

 C         

      1   S       1          3047.5248800    0.001834737132
      1   S       2           457.3695180    0.014037322813
      1   S       3           103.9486850    0.068842622264
      1   S       4            29.2101553    0.232184443216
      1   S       5             9.2866630    0.467941348435
      1   S       6             3.1639270    0.362311985337

      2   L       7             7.8682723   -0.119332419775    0.068999066591
      2   L       8             1.8812885   -0.160854151696    0.316423960957
      2   L       9             0.5442493    1.143456437840    0.744308290898

      3   L      10             0.1687145    1.000000000000    1.000000000000

      4   D      11             0.8000000    1.000000000000

 O         

      5   S      12          5484.6716600    0.001831074430
      5   S      13           825.2349460    0.013950172200
      5   S      14           188.0469580    0.068445078098
      5   S      15            52.9645000    0.232714335992
      5   S      16            16.8975704    0.470192897984
      5   S      17             5.7996353    0.358520852987

      6   L      18            15.5396162   -0.110777549525    0.070874268231
      6   L      19             3.5999336   -0.148026262701    0.339752839147
      6   L      20             1.0137618    1.130767015354    0.727158577316

      7   L      21             0.2700058    1.000000000000    1.000000000000

      8   D      22             0.8000000    1.000000000000

 O         

      9   S      23          5484.6716600    0.001831074430
      9   S      24           825.2349460    0.013950172200
      9   S      25           188.0469580    0.068445078098
      9   S      26            52.9645000    0.232714335992
      9   S      27            16.8975704    0.470192897984
      9   S      28             5.7996353    0.358520852987

     10   L      29            15.5396162   -0.110777549525    0.070874268231
     10   L      30             3.5999336   -0.148026262701    0.339752839147
     10   L      31             1.0137618    1.130767015354    0.727158577316

     11   L      32             0.2700058    1.000000000000    1.000000000000

     12   D      33             0.8000000    1.000000000000

 TOTAL NUMBER OF BASIS SET SHELLS             =   12
 NUMBER OF CARTESIAN GAUSSIAN BASIS FUNCTIONS =   45
 NUMBER OF ELECTRONS                          =   22
 CHARGE OF MOLECULE                           =    0
 SPIN MULTIPLICITY                            =    1
 NUMBER OF OCCUPIED ORBITALS (ALPHA)          =   11
 NUMBER OF OCCUPIED ORBITALS (BETA )          =   11
 TOTAL NUMBER OF ATOMS                        =    3
 THE NUCLEAR REPULSION ENERGY IS       57.4172433475

 THIS MOLECULE IS RECOGNIZED AS BEING LINEAR,
 ORBITAL LZ DEGENERACY TOLERANCE ETOLLZ= 1.00E-06

     $CONTRL OPTIONS
     ---------------
 SCFTYP=UHF          RUNTYP=OPTIMIZE     EXETYP=RUN     
 MPLEVL=       0     CITYP =NONE         CCTYP =NONE         VBTYP =NONE    
 DFTTYP=NONE         TDDFT =NONE    
 MULT  =       1     ICHARG=       0     NZVAR =       0     COORD =UNIQUE  
 PP    =NONE         RELWFN=NONE         LOCAL =NONE         NUMGRD=       F
 ISPHER=      -1     NOSYM =       0     MAXIT =      30     UNITS =ANGS    
 PLTORB=       F     MOLPLT=       F     AIMPAC=       F     FRIEND=        
 NPRINT=       7     IREST =       0     GEOM  =INPUT   
 NORMF =       0     NORMP =       0     ITOL  =      20     ICUT  =       9
 INTTYP=BEST         GRDTYP=BEST         QMTTOL= 1.0E-06

     $SYSTEM OPTIONS
     ---------------
  REPLICATED MEMORY=     1000000 WORDS (ON EVERY NODE).
 DISTRIBUTED MEMDDI=           0 MILLION WORDS IN AGGREGATE,
 MEMDDI DISTRIBUTED OVER   1 PROCESSORS IS           0 WORDS/PROCESSOR.
 TOTAL MEMORY REQUESTED ON EACH PROCESSOR=     1000000 WORDS.
 TIMLIM=      525600.00 MINUTES, OR     365.0 DAYS.
 PARALL= F  BALTYP=  DLB     KDIAG=    0  COREFL= F
 MXSEQ2=     300 MXSEQ3=     150  mem10=         0  mem22=         0

          ----------------
          PROPERTIES INPUT
          ----------------

     MOMENTS            FIELD           POTENTIAL          DENSITY
 IEMOM =       1   IEFLD =       0   IEPOT =       0   IEDEN =       0
 WHERE =COMASS     WHERE =NUCLEI     WHERE =NUCLEI     WHERE =NUCLEI  
 OUTPUT=BOTH       OUTPUT=BOTH       OUTPUT=BOTH       OUTPUT=BOTH    
 IEMINT=       0   IEFINT=       0                     IEDINT=       0
                                                       MORB  =       0
          EXTRAPOLATION IN EFFECT
          SOSCF IN EFFECT
          DIIS or SOSCF will be reset if energy rises
 ORBITAL PRINTING OPTION: NPREO=     1    45     2     1

     -------------------------------
     INTEGRAL TRANSFORMATION OPTIONS
     -------------------------------
     NWORD  =            0
     CUTTRF = 1.0E-09     MPTRAN =       0
     DIRTRF =       F     AOINTS =DUP     

          ----------------------
          INTEGRAL INPUT OPTIONS
          ----------------------
 NOPK  =       1 NORDER=       0 SCHWRZ=       F

     ------------------------------------------
     THE POINT GROUP IS C1 , NAXIS= 0, ORDER= 1
     ------------------------------------------

     DIMENSIONS OF THE SYMMETRY SUBSPACES ARE
 A   =   45

 ..... DONE SETTING UP THE RUN .....
 STEP CPU TIME =     0.00 TOTAL CPU TIME =          0.0 (      0.0 MIN)
 TOTAL WALL CLOCK TIME=          0.0 SECONDS, CPU UTILIZATION IS    97.07%


          -----------------------------
          STATIONARY POINT LOCATION RUN
          -----------------------------

 OBTAINING INITIAL HESSIAN, HESS=GUESS   
 CARTESIAN COORDINATE OPTIMIZATION USING BADGER'S RULE FORCE CONSTANT GUESS

          PARAMETERS CONTROLLING GEOMETRY SEARCH ARE
          METHOD =QA                  UPHESS =BFGS    
          NNEG   =         0          NFRZ   =         0
          NSTEP  =        50          IFOLOW =         1
          HESS   =GUESS               RESTAR =         F
          IHREP  =         0          HSSEND =         F
          NPRT   =         0          NPUN   =         0
          OPTTOL = 1.000E-04          RMIN   = 1.500E-03
          RMAX   = 1.000E-01          RLIM   = 7.000E-02
          DXMAX  = 3.000E-01          PURIFY =         F
          MOVIE  =         F          TRUPD  =         T
          TRMAX  = 5.000E-01          TRMIN  = 5.000E-02
          ITBMAT =         5          STPT   =         F
          STSTEP = 1.000E-02          PROJCT=          T

 BEGINNING GEOMETRY SEARCH POINT NSERCH=   0 ...

 COORDINATES OF ALL ATOMS ARE (ANGS)
   ATOM   CHARGE       X              Y              Z
 ------------------------------------------------------------
 C           6.0  -0.0000000000   0.0000000000   0.0000000000
 O           8.0   0.0000000000  -0.0000000000   1.1796924400
 O           8.0   0.0000000000  -0.0000000000  -1.1796924400

          ********************
          1 ELECTRON INTEGRALS
          ********************
 ...... END OF ONE-ELECTRON INTEGRALS ......
 STEP CPU TIME =     0.00 TOTAL CPU TIME =          0.0 (      0.0 MIN)
 TOTAL WALL CLOCK TIME=          0.0 SECONDS, CPU UTILIZATION IS    97.39%

          -------------
          GUESS OPTIONS
          -------------
          GUESS =HUCKEL            NORB  =       0          NORDER=       0
          MIX   =       F          PRTMO =       F          PUNMO =       F
          TOLZ  = 1.0E-08          TOLE  = 1.0E-05
          SYMDEN=       F          PURIFY=       F

 INITIAL GUESS ORBITALS GENERATED BY HUCKEL   ROUTINE.
 HUCKEL GUESS REQUIRES     18234 WORDS.

 SYMMETRIES FOR INITIAL GUESS ORBITALS FOLLOW.  ALPHA SET(S).
    11 ORBITALS ARE OCCUPIED (    3 CORE ORBITALS).
     4=A        5=A        6=A        7=A        8=A        9=A       10=A   
    11=A       12=A       13=A       14=A       15=A       16=A       17=A   
    18=A       19=A       20=A       21=A   

 SYMMETRIES FOR INITIAL GUESS ORBITALS FOLLOW.   BETA SET(S).
    11 ORBITALS ARE OCCUPIED (    3 CORE ORBITALS).
     4=A        5=A        6=A        7=A        8=A        9=A       10=A   
    11=A       12=A       13=A       14=A       15=A       16=A       17=A   
    18=A       19=A       20=A       21=A   
 ...... END OF INITIAL ORBITAL SELECTION ......
 STEP CPU TIME =     0.00 TOTAL CPU TIME =          0.0 (      0.0 MIN)
 TOTAL WALL CLOCK TIME=          0.0 SECONDS, CPU UTILIZATION IS    97.89%

                    ----------------------
                    AO INTEGRAL TECHNOLOGY
                    ----------------------
     S,P,L SHELL ROTATED AXIS INTEGRALS, REPROGRAMMED BY
        KAZUYA ISHIMURA (IMS) AND JOSE SIERRA (SYNSTAR).
     S,P,D,L SHELL ROTATED AXIS INTEGRALS PROGRAMMED BY
        KAZUYA ISHIMURA (INSTITUTE FOR MOLECULAR SCIENCE).
     S,P,D,F,G SHELL TO TOTAL QUARTET ANGULAR MOMENTUM SUM 5,
        ERIC PROGRAM BY GRAHAM FLETCHER (ELORET AND NASA ADVANCED
        SUPERCOMPUTING DIVISION, AMES RESEARCH CENTER).
     S,P,D,F,G,L SHELL GENERAL RYS QUADRATURE PROGRAMMED BY
        MICHEL DUPUIS (PACIFIC NORTHWEST NATIONAL LABORATORY).

          --------------------
          2 ELECTRON INTEGRALS
          --------------------

 THE -PK- OPTION IS OFF, THE INTEGRALS ARE NOT IN SUPERMATRIX FORM.
 STORING   15000 INTEGRALS/RECORD ON DISK, USING 12 BYTES/INTEGRAL.
 TWO ELECTRON INTEGRAL EVALUATION REQUIRES   90474 WORDS OF MEMORY.
 II,JST,KST,LST =  1  1  1  1 NREC =         1 INTLOC =    1
 II,JST,KST,LST =  2  1  1  1 NREC =         1 INTLOC =    2
 II,JST,KST,LST =  3  1  1  1 NREC =         1 INTLOC =   34
 II,JST,KST,LST =  4  1  1  1 NREC =         1 INTLOC =  214
 II,JST,KST,LST =  5  1  1  1 NREC =         1 INTLOC = 1189
 II,JST,KST,LST =  6  1  1  1 NREC =         1 INTLOC = 1866
 II,JST,KST,LST =  7  1  1  1 NREC =         1 INTLOC = 5596
 II,JST,KST,LST =  8  1  1  1 NREC =         1 INTLOC =12130
 II,JST,KST,LST =  9  1  1  1 NREC =         2 INTLOC =13697
 II,JST,KST,LST = 10  1  1  1 NREC =         3 INTLOC = 2563
 II,JST,KST,LST = 11  1  1  1 NREC =         4 INTLOC = 8081
 II,JST,KST,LST = 12  1  1  1 NREC =         6 INTLOC = 7427
 TOTAL NUMBER OF NONZERO TWO-ELECTRON INTEGRALS =              143092
         10 INTEGRAL RECORDS WERE STORED ON DISK FILE  8.
  ...... END OF TWO-ELECTRON INTEGRALS .....
 STEP CPU TIME =     0.01 TOTAL CPU TIME =          0.0 (      0.0 MIN)
 TOTAL WALL CLOCK TIME=          0.0 SECONDS, CPU UTILIZATION IS    99.39%

          ---------------------------
                  UHF SCF CALCULATION
          ---------------------------

     NUCLEAR ENERGY =        57.4172433475
     MAXIT = 30     NPUNCH=  2     MULT=  1
     EXTRAP=T  DAMP=F  SHIFT=F  RSTRCT=F  DIIS=F  SOSCF=T
     DENSITY MATRIX CONV=  1.00E-05
     SOSCF WILL OPTIMIZE     374 ALPHA AND     374 BETA ROTATION ANGLES.
     SOGTOL= 2.500E-01
     MEMORY REQUIRED FOR UHF/ROHF ITERS=     56206 WORDS.

 ITER EX      TOTAL ENERGY        E CHANGE  DENSITY CHANGE    ORB. GRAD 
   1  0     -187.0537937924  -187.0537937924   0.203700504   0.000000000
          ---------------START SECOND ORDER SCF---------------
   2  1     -187.5844965893    -0.5307027969   0.133175639   0.087282190
   3  2     -187.6108817255    -0.0263851362   0.056461395   0.050197661
   4  3     -187.6277432456    -0.0168615202   0.013899896   0.006241608
   5  4     -187.6280532338    -0.0003099882   0.003015243   0.001489529
   6  5     -187.6280841919    -0.0000309581   0.000475787   0.000443277
   7  6     -187.6280856908    -0.0000014988   0.000157936   0.000105435
   8  7     -187.6280857389    -0.0000000481   0.000034232   0.000009678
   9  8     -187.6280857401    -0.0000000012   0.000003634   0.000001550
  10  9     -187.6280857401    -0.0000000000   0.000000464   0.000000239

          -----------------
          DENSITY CONVERGED
          -----------------
     TIME TO FORM FOCK OPERATORS=       0.0 SECONDS (       0.0 SEC/ITER)
     TIME TO SOLVE SCF EQUATIONS=       0.0 SECONDS (       0.0 SEC/ITER)

 FINAL UHF ENERGY IS     -187.6280857401 AFTER  10 ITERATIONS

          --------------------
          SPIN SZ   =    0.000
          S-SQUARED =   -0.000
          --------------------

 LZ VALUE ANALYSIS FOR THE MOS
 ----------------------------------------
 MO     1 (    1) HAS LZ(WEIGHT)= 0.00(100.0%) 
 MO     2 (    2) HAS LZ(WEIGHT)= 0.00(100.0%) 
 MO     3 (    3) HAS LZ(WEIGHT)= 0.00(100.0%) 
 MO     4 (    4) HAS LZ(WEIGHT)= 0.00(100.0%) 
 MO     5 (    5) HAS LZ(WEIGHT)= 0.00(100.0%) 
 MO     6 (    6) HAS LZ(WEIGHT)= 0.00(100.0%) 
 MO     7 (    7) HAS LZ(WEIGHT)= 0.00(100.0%) 
 MO     8 (    8) HAS LZ(WEIGHT)=-1.00( 50.0%)  1.00( 50.0%) 
 MO     9 (    8) HAS LZ(WEIGHT)=-1.00( 50.0%)  1.00( 50.0%) 
 MO    10 (    9) HAS LZ(WEIGHT)=-1.00( 50.0%)  1.00( 50.0%) 
 MO    11 (    9) HAS LZ(WEIGHT)=-1.00( 50.0%)  1.00( 50.0%) 
 MO    12 (   10) HAS LZ(WEIGHT)=-1.00( 50.0%)  1.00( 50.0%) 
 MO    13 (   10) HAS LZ(WEIGHT)=-1.00( 50.0%)  1.00( 50.0%) 
 MO    14 (   11) HAS LZ(WEIGHT)= 0.00(100.0%) 
 MO    15 (   12) HAS LZ(WEIGHT)= 0.00(100.0%) 
 MO    16 (   13) HAS LZ(WEIGHT)=-1.00( 50.0%)  1.00( 50.0%) 
 MO    17 (   13) HAS LZ(WEIGHT)=-1.00( 50.0%)  1.00( 50.0%) 
 MO    18 (   14) HAS LZ(WEIGHT)= 0.00(100.0%) 
 MO    19 (   15) HAS LZ(WEIGHT)= 0.00(100.0%) 
 MO    20 (   16) HAS LZ(WEIGHT)= 0.00(100.0%) 
 MO    21 (   17) HAS LZ(WEIGHT)=-1.00( 50.0%)  1.00( 50.0%) 
 MO    22 (   17) HAS LZ(WEIGHT)=-1.00( 50.0%)  1.00( 50.0%) 
 MO    23 (   18) HAS LZ(WEIGHT)=-1.00( 50.0%)  1.00( 50.0%) 
 MO    24 (   18) HAS LZ(WEIGHT)=-1.00( 50.0%)  1.00( 50.0%) 
 MO    25 (   19) HAS LZ(WEIGHT)= 0.00(100.0%) 
 MO    26 (   20) HAS LZ(WEIGHT)= 0.00(100.0%) 
 MO    27 (   21) HAS LZ(WEIGHT)=-2.00( 50.0%)  2.00( 50.0%) 
 MO    28 (   21) HAS LZ(WEIGHT)=-2.00( 50.0%)  2.00( 50.0%) 
 MO    29 (   22) HAS LZ(WEIGHT)=-1.00( 50.0%)  1.00( 50.0%) 
 MO    30 (   22) HAS LZ(WEIGHT)=-1.00( 50.0%)  1.00( 50.0%) 
 MO    31 (   23) HAS LZ(WEIGHT)=-2.00( 50.0%)  2.00( 50.0%) 
 MO    32 (   23) HAS LZ(WEIGHT)=-2.00( 50.0%)  2.00( 50.0%) 
 MO    33 (   24) HAS LZ(WEIGHT)= 0.00(100.0%) 
 MO    34 (   25) HAS LZ(WEIGHT)=-2.00( 50.0%)  2.00( 50.0%) 
 MO    35 (   25) HAS LZ(WEIGHT)=-2.00( 50.0%)  2.00( 50.0%) 
 MO    36 (   26) HAS LZ(WEIGHT)=-1.00( 50.0%)  1.00( 50.0%) 
 MO    37 (   26) HAS LZ(WEIGHT)=-1.00( 50.0%)  1.00( 50.0%) 
 MO    38 (   27) HAS LZ(WEIGHT)= 0.00(100.0%) 
 MO    39 (   28) HAS LZ(WEIGHT)= 0.00(100.0%) 
 MO    40 (   29) HAS LZ(WEIGHT)=-1.00( 50.0%)  1.00( 50.0%) 
 MO    41 (   29) HAS LZ(WEIGHT)=-1.00( 50.0%)  1.00( 50.0%) 
 MO    42 (   30) HAS LZ(WEIGHT)= 0.00(100.0%) 
 MO    43 (   31) HAS LZ(WEIGHT)= 0.00(100.0%) 
 MO    44 (   32) HAS LZ(WEIGHT)= 0.00(100.0%) 
 MO    45 (   33) HAS LZ(WEIGHT)= 0.00(100.0%) 

  ----- ALPHA SET ----- 

          ------------
          EIGENVECTORS
          ------------

                      1          2          3          4          5
                  -20.6665   -20.6665   -11.4804    -1.5213    -1.4667
                     A          A          A          A          A   
    1  C  1  S   -0.000000  -0.000123   0.995822  -0.148347   0.000000
    2  C  1  S   -0.000000   0.000413   0.026254   0.292016   0.000000
    3  C  1  X   -0.000000   0.000000  -0.000000   0.000000   0.000000
    4  C  1  Y   -0.000000   0.000000  -0.000000   0.000000   0.000000
    5  C  1  Z    0.000089   0.000000  -0.000000   0.000000  -0.315570
    6  C  1  S   -0.000000  -0.001483  -0.001298   0.040730   0.000000
    7  C  1  X   -0.000000   0.000000  -0.000000   0.000000   0.000000
    8  C  1  Y   -0.000000   0.000000  -0.000000   0.000000   0.000000
    9  C  1  Z    0.000637   0.000000  -0.000000   0.000000   0.017595
   10  C  1 XX   -0.000000  -0.000031  -0.002815  -0.026830   0.000000
   11  C  1 YY   -0.000000  -0.000031  -0.002815  -0.026830   0.000000
   12  C  1 ZZ   -0.000000  -0.002658   0.001419   0.047763   0.000000
   13  C  1 XY   -0.000000   0.000000  -0.000000   0.000000   0.000000
   14  C  1 XZ   -0.000000   0.000000  -0.000000   0.000000   0.000000
   15  C  1 YZ   -0.000000   0.000000  -0.000000   0.000000   0.000000
   16  O  2  S   -0.703357   0.703399  -0.000466  -0.135058   0.146953
   17  O  2  S   -0.014697   0.015011   0.000096   0.295616  -0.327956
   18  O  2  X   -0.000000   0.000000  -0.000000   0.000000   0.000000
   19  O  2  Y   -0.000000   0.000000  -0.000000   0.000000   0.000000
   20  O  2  Z    0.001187  -0.001783   0.000180  -0.101884   0.102540
   21  O  2  S   -0.003329   0.003580  -0.002055   0.260864  -0.278722
   22  O  2  X   -0.000000   0.000000  -0.000000   0.000000   0.000000
   23  O  2  Y   -0.000000   0.000000  -0.000000   0.000000   0.000000
   24  O  2  Z   -0.000092  -0.000611   0.002212  -0.046382   0.026908
   25  O  2 XX    0.002846  -0.002880   0.000159  -0.002434   0.001521
   26  O  2 YY    0.002846  -0.002880   0.000159  -0.002434   0.001521
   27  O  2 ZZ    0.002623  -0.001774  -0.000716   0.012741  -0.014778
   28  O  2 XY   -0.000000   0.000000  -0.000000   0.000000   0.000000
   29  O  2 XZ   -0.000000   0.000000  -0.000000   0.000000   0.000000
   30  O  2 YZ   -0.000000   0.000000  -0.000000   0.000000   0.000000
   31  O  3  S    0.703357   0.703399  -0.000466  -0.135058  -0.146953
   32  O  3  S    0.014697   0.015011   0.000096   0.295616   0.327956
   33  O  3  X   -0.000000   0.000000  -0.000000   0.000000   0.000000
   34  O  3  Y   -0.000000   0.000000  -0.000000   0.000000   0.000000
   35  O  3  Z    0.001187   0.001783  -0.000180   0.101884   0.102540
   36  O  3  S    0.003329   0.003580  -0.002055   0.260864   0.278722
   37  O  3  X   -0.000000   0.000000  -0.000000   0.000000   0.000000
   38  O  3  Y   -0.000000   0.000000  -0.000000   0.000000   0.000000
   39  O  3  Z   -0.000092   0.000611  -0.002212   0.046382   0.026908
   40  O  3 XX   -0.002846  -0.002880   0.000159  -0.002434  -0.001521
   41  O  3 YY   -0.002846  -0.002880   0.000159  -0.002434  -0.001521
   42  O  3 ZZ   -0.002623  -0.001774  -0.000716   0.012741   0.014778
   43  O  3 XY   -0.000000   0.000000  -0.000000   0.000000   0.000000
   44  O  3 XZ   -0.000000   0.000000  -0.000000   0.000000   0.000000
   45  O  3 YZ   -0.000000   0.000000  -0.000000   0.000000   0.000000

                      6          7          8          9         10
                   -0.7970    -0.7329    -0.7034    -0.7034    -0.5378
                     A          A          A          A          A   
    1  C  1  S   -0.135206  -0.000000   0.000000   0.000000   0.000000
    2  C  1  S    0.325039  -0.000000   0.000000   0.000000   0.000000
    3  C  1  X   -0.000000  -0.000000   0.181662   0.301401   0.000000
    4  C  1  Y   -0.000000  -0.000000   0.301401  -0.181662   0.000000
    5  C  1  Z   -0.000000  -0.371597   0.000000   0.000000   0.000000
    6  C  1  S    0.164735  -0.000000   0.000000   0.000000   0.000000
    7  C  1  X   -0.000000  -0.000000   0.068756   0.114076   0.000000
    8  C  1  Y   -0.000000  -0.000000   0.114076  -0.068756   0.000000
    9  C  1  Z   -0.000000  -0.002664   0.000000   0.000000   0.000000
   10  C  1 XX   -0.013684  -0.000000   0.000000   0.000000   0.000000
   11  C  1 YY   -0.013684  -0.000000   0.000000   0.000000   0.000000
   12  C  1 ZZ    0.009938  -0.000000   0.000000   0.000000   0.000000
   13  C  1 XY   -0.000000  -0.000000   0.000000   0.000000   0.000000
   14  C  1 XZ   -0.000000  -0.000000   0.000000   0.000000   0.066390
   15  C  1 YZ   -0.000000  -0.000000   0.000000   0.000000   0.014570
   16  O  2  S    0.087195  -0.064118   0.000000   0.000000   0.000000
   17  O  2  S   -0.207887   0.155169   0.000000   0.000000   0.000000
   18  O  2  X   -0.000000  -0.000000   0.187911   0.311769   0.443971
   19  O  2  Y   -0.000000  -0.000000   0.311769  -0.187911   0.097435
   20  O  2  Z   -0.328509   0.386026   0.000000   0.000000   0.000000
   21  O  2  S   -0.311343   0.257532   0.000000   0.000000   0.000000
   22  O  2  X   -0.000000  -0.000000   0.116593   0.193443   0.336135
   23  O  2  Y   -0.000000  -0.000000   0.193443  -0.116593   0.073769
   24  O  2  Z   -0.174595   0.197247   0.000000   0.000000   0.000000
   25  O  2 XX   -0.007442   0.008564   0.000000   0.000000   0.000000
   26  O  2 YY   -0.007442   0.008564   0.000000   0.000000   0.000000
   27  O  2 ZZ    0.022455  -0.024641   0.000000   0.000000   0.000000
   28  O  2 XY   -0.000000  -0.000000   0.000000   0.000000   0.000000
   29  O  2 XZ   -0.000000  -0.000000  -0.017469  -0.028983  -0.026249
   30  O  2 YZ   -0.000000  -0.000000  -0.028983   0.017469  -0.005761
   31  O  3  S    0.087195   0.064118   0.000000   0.000000   0.000000
   32  O  3  S   -0.207887  -0.155169   0.000000   0.000000   0.000000
   33  O  3  X   -0.000000  -0.000000   0.187911   0.311769  -0.443971
   34  O  3  Y   -0.000000  -0.000000   0.311769  -0.187911  -0.097435
   35  O  3  Z    0.328509   0.386026   0.000000   0.000000   0.000000
   36  O  3  S   -0.311343  -0.257532   0.000000   0.000000   0.000000
   37  O  3  X   -0.000000  -0.000000   0.116593   0.193443  -0.336135
   38  O  3  Y   -0.000000  -0.000000   0.193443  -0.116593  -0.073769
   39  O  3  Z    0.174595   0.197247   0.000000   0.000000   0.000000
   40  O  3 XX   -0.007442  -0.008564   0.000000   0.000000   0.000000
   41  O  3 YY   -0.007442  -0.008564   0.000000   0.000000   0.000000
   42  O  3 ZZ    0.022455   0.024641   0.000000   0.000000   0.000000
   43  O  3 XY   -0.000000  -0.000000   0.000000   0.000000   0.000000
   44  O  3 XZ   -0.000000  -0.000000   0.017469   0.028983  -0.026249
   45  O  3 YZ   -0.000000  -0.000000   0.028983  -0.017469  -0.005761

                     11         12         13         14         15
                   -0.5378     0.2012     0.2012     0.2527     0.5124
                     A          A          A          A          A   
    1  C  1  S   -0.000000  -0.000000   0.000000  -0.088730   0.000000
    2  C  1  S   -0.000000  -0.000000   0.000000  -0.027527   0.000000
    3  C  1  X   -0.000000   0.269295   0.457035  -0.000000   0.000000
    4  C  1  Y   -0.000000   0.457035  -0.269295  -0.000000   0.000000
    5  C  1  Z   -0.000000  -0.000000   0.000000  -0.000000   0.049555
    6  C  1  S   -0.000000  -0.000000   0.000000   2.460073   0.000000
    7  C  1  X   -0.000000   0.383258   0.650448  -0.000000   0.000000
    8  C  1  Y   -0.000000   0.650448  -0.383258  -0.000000   0.000000
    9  C  1  Z   -0.000000  -0.000000   0.000000  -0.000000   4.295454
   10  C  1 XX   -0.000000  -0.000000   0.000000   0.008050   0.000000
   11  C  1 YY   -0.000000  -0.000000   0.000000   0.008050   0.000000
   12  C  1 ZZ   -0.000000  -0.000000   0.000000  -0.022931   0.000000
   13  C  1 XY   -0.000000  -0.000000   0.000000  -0.000000   0.000000
   14  C  1 XZ    0.014570  -0.000000   0.000000  -0.000000   0.000000
   15  C  1 YZ   -0.066390  -0.000000   0.000000  -0.000000   0.000000
   16  O  2  S   -0.000000  -0.000000   0.000000   0.075224   0.101202
   17  O  2  S   -0.000000  -0.000000   0.000000  -0.143607   0.031725
   18  O  2  X    0.097435  -0.166816  -0.283112  -0.000000   0.000000
   19  O  2  Y   -0.443971  -0.283112   0.166816  -0.000000   0.000000
   20  O  2  Z   -0.000000  -0.000000   0.000000   0.246921  -0.083510
   21  O  2  S   -0.000000  -0.000000   0.000000  -0.967074  -3.147912
   22  O  2  X    0.073769  -0.226051  -0.383642  -0.000000   0.000000
   23  O  2  Y   -0.336135  -0.383642   0.226051  -0.000000   0.000000
   24  O  2  Z   -0.000000  -0.000000   0.000000   0.632440   0.907447
   25  O  2 XX   -0.000000  -0.000000   0.000000   0.025003   0.086060
   26  O  2 YY   -0.000000  -0.000000   0.000000   0.025003   0.086060
   27  O  2 ZZ   -0.000000  -0.000000   0.000000  -0.043769   0.013278
   28  O  2 XY   -0.000000  -0.000000   0.000000  -0.000000   0.000000
   29  O  2 XZ   -0.005761  -0.007810  -0.013254  -0.000000   0.000000
   30  O  2 YZ    0.026249  -0.013254   0.007810  -0.000000   0.000000
   31  O  3  S   -0.000000  -0.000000   0.000000   0.075224  -0.101202
   32  O  3  S   -0.000000  -0.000000   0.000000  -0.143607  -0.031725
   33  O  3  X   -0.097435  -0.166816  -0.283112  -0.000000   0.000000
   34  O  3  Y    0.443971  -0.283112   0.166816  -0.000000   0.000000
   35  O  3  Z   -0.000000  -0.000000   0.000000  -0.246921  -0.083510
   36  O  3  S   -0.000000  -0.000000   0.000000  -0.967074   3.147912
   37  O  3  X   -0.073769  -0.226051  -0.383642  -0.000000   0.000000
   38  O  3  Y    0.336135  -0.383642   0.226051  -0.000000   0.000000
   39  O  3  Z   -0.000000  -0.000000   0.000000  -0.632440   0.907447
   40  O  3 XX   -0.000000  -0.000000   0.000000   0.025003  -0.086060
   41  O  3 YY   -0.000000  -0.000000   0.000000   0.025003  -0.086060
   42  O  3 ZZ   -0.000000  -0.000000   0.000000  -0.043769  -0.013278
   43  O  3 XY   -0.000000  -0.000000   0.000000  -0.000000   0.000000
   44  O  3 XZ   -0.005761   0.007810   0.013254  -0.000000   0.000000
   45  O  3 YZ    0.026249   0.013254  -0.007810  -0.000000   0.000000

                     16         17         18         19         20
                    0.6684     0.6684     0.8027     0.9631     0.9954
                     A          A          A          A          A   
    1  C  1  S   -0.000000  -0.000000   0.116449  -0.000000   0.074107
    2  C  1  S   -0.000000  -0.000000  -1.224533  -0.000000   0.901595
    3  C  1  X   -0.972659   0.101809   0.000000  -0.000000   0.000000
    4  C  1  Y   -0.101809  -0.972659   0.000000  -0.000000   0.000000
    5  C  1  Z   -0.000000  -0.000000   0.000000   1.036214   0.000000
    6  C  1  S   -0.000000  -0.000000   1.853127  -0.000000   0.209357
    7  C  1  X    1.274608  -0.133415   0.000000  -0.000000   0.000000
    8  C  1  Y    0.133415   1.274608   0.000000  -0.000000   0.000000
    9  C  1  Z   -0.000000  -0.000000   0.000000  -0.216017   0.000000
   10  C  1 XX   -0.000000  -0.000000  -0.176848  -0.000000  -0.036892
   11  C  1 YY   -0.000000  -0.000000  -0.176848  -0.000000  -0.036892
   12  C  1 ZZ   -0.000000  -0.000000   0.273786  -0.000000   0.441579
   13  C  1 XY   -0.000000  -0.000000   0.000000  -0.000000   0.000000
   14  C  1 XZ   -0.000000  -0.000000   0.000000  -0.000000   0.000000
   15  C  1 YZ   -0.000000  -0.000000   0.000000  -0.000000   0.000000
   16  O  2  S   -0.000000  -0.000000  -0.020300   0.038702   0.004417
   17  O  2  S   -0.000000  -0.000000   0.069977  -0.253829  -0.376538
   18  O  2  X   -0.077224   0.008083   0.000000  -0.000000   0.000000
   19  O  2  Y   -0.008083  -0.077224   0.000000  -0.000000   0.000000
   20  O  2  Z   -0.000000  -0.000000  -0.338642  -0.072772  -0.366213
   21  O  2  S   -0.000000  -0.000000  -0.474048  -0.030921   0.260285
   22  O  2  X   -0.140168   0.014671   0.000000  -0.000000   0.000000
   23  O  2  Y   -0.014671  -0.140168   0.000000  -0.000000   0.000000
   24  O  2  Z   -0.000000  -0.000000   0.254561   0.887373   1.041448
   25  O  2 XX   -0.000000  -0.000000   0.052303  -0.110970  -0.132868
   26  O  2 YY   -0.000000  -0.000000   0.052303  -0.110970  -0.132868
   27  O  2 ZZ   -0.000000  -0.000000  -0.202553   0.038955  -0.271114
   28  O  2 XY   -0.000000  -0.000000   0.000000  -0.000000   0.000000
   29  O  2 XZ    0.073342  -0.007677   0.000000  -0.000000   0.000000
   30  O  2 YZ    0.007677   0.073342   0.000000  -0.000000   0.000000
   31  O  3  S   -0.000000  -0.000000  -0.020300  -0.038702   0.004417
   32  O  3  S   -0.000000  -0.000000   0.069977   0.253829  -0.376538
   33  O  3  X   -0.077224   0.008083   0.000000  -0.000000   0.000000
   34  O  3  Y   -0.008083  -0.077224   0.000000  -0.000000   0.000000
   35  O  3  Z   -0.000000  -0.000000   0.338642  -0.072772   0.366213
   36  O  3  S   -0.000000  -0.000000  -0.474048   0.030921   0.260285
   37  O  3  X   -0.140168   0.014671   0.000000  -0.000000   0.000000
   38  O  3  Y   -0.014671  -0.140168   0.000000  -0.000000   0.000000
   39  O  3  Z   -0.000000  -0.000000  -0.254561   0.887373  -1.041448
   40  O  3 XX   -0.000000  -0.000000   0.052303   0.110970  -0.132868
   41  O  3 YY   -0.000000  -0.000000   0.052303   0.110970  -0.132868
   42  O  3 ZZ   -0.000000  -0.000000  -0.202553  -0.038955  -0.271114
   43  O  3 XY   -0.000000  -0.000000   0.000000  -0.000000   0.000000
   44  O  3 XZ   -0.073342   0.007677   0.000000  -0.000000   0.000000
   45  O  3 YZ   -0.007677  -0.073342   0.000000  -0.000000   0.000000

                     21         22         23         24         25
                    1.1494     1.1494     1.3202     1.3202     1.3679
                     A          A          A          A          A   
    1  C  1  S    0.000000   0.000000  -0.000000   0.000000   0.000000
    2  C  1  S    0.000000   0.000000  -0.000000   0.000000   0.000000
    3  C  1  X    0.000000   0.000000   0.001138   0.184350   0.000000
    4  C  1  Y    0.000000   0.000000   0.184350  -0.001138   0.000000
    5  C  1  Z    0.000000   0.000000  -0.000000   0.000000   0.591863
    6  C  1  S    0.000000   0.000000  -0.000000   0.000000   0.000000
    7  C  1  X    0.000000   0.000000  -0.005964  -0.966466   0.000000
    8  C  1  Y    0.000000   0.000000  -0.966466   0.005964   0.000000
    9  C  1  Z    0.000000   0.000000  -0.000000   0.000000   1.067205
   10  C  1 XX    0.000000   0.000000  -0.000000   0.000000   0.000000
   11  C  1 YY    0.000000   0.000000  -0.000000   0.000000   0.000000
   12  C  1 ZZ    0.000000   0.000000  -0.000000   0.000000   0.000000
   13  C  1 XY    0.000000   0.000000  -0.000000   0.000000   0.000000
   14  C  1 XZ    0.002801  -0.168914  -0.000000   0.000000   0.000000
   15  C  1 YZ    0.168914   0.002801  -0.000000   0.000000   0.000000
   16  O  2  S    0.000000   0.000000  -0.000000   0.000000   0.057326
   17  O  2  S    0.000000   0.000000  -0.000000   0.000000   0.023507
   18  O  2  X    0.010781  -0.650062  -0.004116  -0.666969   0.000000
   19  O  2  Y    0.650062   0.010781  -0.666969   0.004116   0.000000
   20  O  2  Z    0.000000   0.000000  -0.000000   0.000000   0.733681
   21  O  2  S    0.000000   0.000000  -0.000000   0.000000  -1.198608
   22  O  2  X   -0.013369   0.806070   0.006666   1.080145   0.000000
   23  O  2  Y   -0.806070  -0.013369   1.080145  -0.006666   0.000000
   24  O  2  Z    0.000000   0.000000  -0.000000   0.000000  -0.297621
   25  O  2 XX    0.000000   0.000000  -0.000000   0.000000   0.040816
   26  O  2 YY    0.000000   0.000000  -0.000000   0.000000   0.040816
   27  O  2 ZZ    0.000000   0.000000  -0.000000   0.000000   0.204731
   28  O  2 XY    0.000000   0.000000  -0.000000   0.000000   0.000000
   29  O  2 XZ   -0.000325   0.019612   0.000460   0.074507   0.000000
   30  O  2 YZ   -0.019612  -0.000325   0.074507  -0.000460   0.000000
   31  O  3  S    0.000000   0.000000  -0.000000   0.000000  -0.057326
   32  O  3  S    0.000000   0.000000  -0.000000   0.000000  -0.023507
   33  O  3  X   -0.010781   0.650062  -0.004116  -0.666969   0.000000
   34  O  3  Y   -0.650062  -0.010781  -0.666969   0.004116   0.000000
   35  O  3  Z    0.000000   0.000000  -0.000000   0.000000   0.733681
   36  O  3  S    0.000000   0.000000  -0.000000   0.000000   1.198608
   37  O  3  X    0.013369  -0.806070   0.006666   1.080145   0.000000
   38  O  3  Y    0.806070   0.013369   1.080145  -0.006666   0.000000
   39  O  3  Z    0.000000   0.000000  -0.000000   0.000000  -0.297621
   40  O  3 XX    0.000000   0.000000  -0.000000   0.000000  -0.040816
   41  O  3 YY    0.000000   0.000000  -0.000000   0.000000  -0.040816
   42  O  3 ZZ    0.000000   0.000000  -0.000000   0.000000  -0.204731
   43  O  3 XY    0.000000   0.000000  -0.000000   0.000000   0.000000
   44  O  3 XZ   -0.000325   0.019612  -0.000460  -0.074507   0.000000
   45  O  3 YZ   -0.019612  -0.000325  -0.074507   0.000460   0.000000

                     26         27         28         29         30
                    1.5958     1.6472     1.6472     1.6677     1.6677
                     A          A          A          A          A   
    1  C  1  S    0.053913   0.000000   0.000000  -0.000000  -0.000000
    2  C  1  S    0.429298   0.000000   0.000000  -0.000000  -0.000000
    3  C  1  X    0.000000   0.000000   0.000000  -0.000000  -0.000000
    4  C  1  Y    0.000000   0.000000   0.000000  -0.000000  -0.000000
    5  C  1  Z    0.000000   0.000000   0.000000  -0.000000  -0.000000
    6  C  1  S    3.712671   0.000000   0.000000  -0.000000  -0.000000
    7  C  1  X    0.000000   0.000000   0.000000  -0.000000  -0.000000
    8  C  1  Y    0.000000   0.000000   0.000000  -0.000000  -0.000000
    9  C  1  Z    0.000000   0.000000   0.000000  -0.000000  -0.000000
   10  C  1 XX   -0.166956   0.648318   0.000000  -0.000000  -0.000000
   11  C  1 YY   -0.166956  -0.648318  -0.000000  -0.000000  -0.000000
   12  C  1 ZZ    0.332811   0.000000   0.000000  -0.000000  -0.000000
   13  C  1 XY    0.000000  -0.000000   0.748613  -0.000000  -0.000000
   14  C  1 XZ    0.000000   0.000000   0.000000   0.512830  -0.159660
   15  C  1 YZ    0.000000   0.000000   0.000000   0.159660   0.512830
   16  O  2  S    0.075062   0.000000   0.000000  -0.000000  -0.000000
   17  O  2  S    1.167267   0.000000   0.000000  -0.000000  -0.000000
   18  O  2  X    0.000000   0.000000   0.000000  -0.193697   0.060304
   19  O  2  Y    0.000000   0.000000   0.000000  -0.060304  -0.193697
   20  O  2  Z   -0.080541   0.000000   0.000000  -0.000000  -0.000000
   21  O  2  S   -3.592293   0.000000   0.000000  -0.000000  -0.000000
   22  O  2  X    0.000000   0.000000   0.000000  -0.016091   0.005010
   23  O  2  Y    0.000000   0.000000   0.000000  -0.005010  -0.016091
   24  O  2  Z    1.397398   0.000000   0.000000  -0.000000  -0.000000
   25  O  2 XX    0.247443   0.326753   0.000000  -0.000000  -0.000000
   26  O  2 YY    0.247443  -0.326753  -0.000000  -0.000000  -0.000000
   27  O  2 ZZ    0.390977   0.000000   0.000000  -0.000000  -0.000000
   28  O  2 XY    0.000000  -0.000000   0.377302  -0.000000  -0.000000
   29  O  2 XZ    0.000000   0.000000   0.000000  -0.399882   0.124496
   30  O  2 YZ    0.000000   0.000000   0.000000  -0.124496  -0.399882
   31  O  3  S    0.075062   0.000000   0.000000  -0.000000  -0.000000
   32  O  3  S    1.167267   0.000000   0.000000  -0.000000  -0.000000
   33  O  3  X    0.000000   0.000000   0.000000   0.193697  -0.060304
   34  O  3  Y    0.000000   0.000000   0.000000   0.060304   0.193697
   35  O  3  Z    0.080541   0.000000   0.000000  -0.000000  -0.000000
   36  O  3  S   -3.592293   0.000000   0.000000  -0.000000  -0.000000
   37  O  3  X    0.000000   0.000000   0.000000   0.016091  -0.005010
   38  O  3  Y    0.000000   0.000000   0.000000   0.005010   0.016091
   39  O  3  Z   -1.397398   0.000000   0.000000  -0.000000  -0.000000
   40  O  3 XX    0.247443   0.326753   0.000000  -0.000000  -0.000000
   41  O  3 YY    0.247443  -0.326753  -0.000000  -0.000000  -0.000000
   42  O  3 ZZ    0.390977   0.000000   0.000000  -0.000000  -0.000000
   43  O  3 XY    0.000000  -0.000000   0.377302  -0.000000  -0.000000
   44  O  3 XZ    0.000000   0.000000   0.000000  -0.399882   0.124496
   45  O  3 YZ    0.000000   0.000000   0.000000  -0.124496  -0.399882

                     31         32         33         34         35
                    2.0159     2.0159     2.0832     2.3218     2.3218
                     A          A          A          A          A   
    1  C  1  S    0.000000   0.000000   0.000000   0.000000   0.000000
    2  C  1  S    0.000000   0.000000   0.000000   0.000000   0.000000
    3  C  1  X    0.000000   0.000000   0.000000   0.000000   0.000000
    4  C  1  Y    0.000000   0.000000   0.000000   0.000000   0.000000
    5  C  1  Z    0.000000   0.000000   0.139429   0.000000   0.000000
    6  C  1  S    0.000000   0.000000   0.000000   0.000000   0.000000
    7  C  1  X    0.000000   0.000000   0.000000   0.000000   0.000000
    8  C  1  Y    0.000000   0.000000   0.000000   0.000000   0.000000
    9  C  1  Z    0.000000   0.000000   5.283077   0.000000   0.000000
   10  C  1 XX    0.000000   0.000000   0.000000   0.599096  -0.000000
   11  C  1 YY    0.000000   0.000000   0.000000  -0.599096   0.000000
   12  C  1 ZZ    0.000000   0.000000   0.000000   0.000000   0.000000
   13  C  1 XY    0.000000   0.000000   0.000000   0.000000   0.691777
   14  C  1 XZ    0.000000   0.000000   0.000000   0.000000   0.000000
   15  C  1 YZ    0.000000   0.000000   0.000000   0.000000   0.000000
   16  O  2  S    0.000000   0.000000   0.085109   0.000000   0.000000
   17  O  2  S    0.000000   0.000000   1.656021   0.000000   0.000000
   18  O  2  X    0.000000   0.000000   0.000000   0.000000   0.000000
   19  O  2  Y    0.000000   0.000000   0.000000   0.000000   0.000000
   20  O  2  Z    0.000000   0.000000  -0.151760   0.000000   0.000000
   21  O  2  S    0.000000   0.000000  -6.131886   0.000000   0.000000
   22  O  2  X    0.000000   0.000000   0.000000   0.000000   0.000000
   23  O  2  Y    0.000000   0.000000   0.000000   0.000000   0.000000
   24  O  2  Z    0.000000   0.000000   1.462433   0.000000   0.000000
   25  O  2 XX   -0.612480   0.000001   0.213013  -0.531707   0.000000
   26  O  2 YY    0.612480  -0.000001   0.213013   0.531707  -0.000000
   27  O  2 ZZ    0.000000   0.000000   0.518209   0.000000   0.000000
   28  O  2 XY   -0.000001  -0.707231   0.000000  -0.000000  -0.613962
   29  O  2 XZ    0.000000   0.000000   0.000000   0.000000   0.000000
   30  O  2 YZ    0.000000   0.000000   0.000000   0.000000   0.000000
   31  O  3  S    0.000000   0.000000  -0.085109   0.000000   0.000000
   32  O  3  S    0.000000   0.000000  -1.656021   0.000000   0.000000
   33  O  3  X    0.000000   0.000000   0.000000   0.000000   0.000000
   34  O  3  Y    0.000000   0.000000   0.000000   0.000000   0.000000
   35  O  3  Z    0.000000   0.000000  -0.151760   0.000000   0.000000
   36  O  3  S    0.000000   0.000000   6.131886   0.000000   0.000000
   37  O  3  X    0.000000   0.000000   0.000000   0.000000   0.000000
   38  O  3  Y    0.000000   0.000000   0.000000   0.000000   0.000000
   39  O  3  Z    0.000000   0.000000   1.462433   0.000000   0.000000
   40  O  3 XX    0.612480  -0.000001  -0.213013  -0.531707   0.000000
   41  O  3 YY   -0.612480   0.000001  -0.213013   0.531707  -0.000000
   42  O  3 ZZ    0.000000   0.000000  -0.518209   0.000000   0.000000
   43  O  3 XY    0.000001   0.707231   0.000000  -0.000000  -0.613962
   44  O  3 XZ    0.000000   0.000000   0.000000   0.000000   0.000000
   45  O  3 YZ    0.000000   0.000000   0.000000   0.000000   0.000000

                     36         37         38         39         40
                    2.4301     2.4301     3.0266     3.2795     3.2836
                     A          A          A          A          A   
    1  C  1  S   -0.000000   0.000000  -0.249530  -0.000000   0.000000
    2  C  1  S   -0.000000   0.000000  -0.847788  -0.000000   0.000000
    3  C  1  X    0.494238  -0.037658  -0.000000  -0.000000   0.000000
    4  C  1  Y    0.037658   0.494238  -0.000000  -0.000000   0.000000
    5  C  1  Z   -0.000000   0.000000  -0.000000   1.791155   0.000000
    6  C  1  S   -0.000000   0.000000  -1.196317  -0.000000   0.000000
    7  C  1  X    0.393198  -0.029960  -0.000000  -0.000000   0.000000
    8  C  1  Y    0.029960   0.393198  -0.000000  -0.000000   0.000000
    9  C  1  Z   -0.000000   0.000000  -0.000000   1.786389   0.000000
   10  C  1 XX   -0.000000   0.000000  -0.601604  -0.000000   0.000000
   11  C  1 YY   -0.000000   0.000000  -0.601604  -0.000000   0.000000
   12  C  1 ZZ   -0.000000   0.000000  -0.081139  -0.000000   0.000000
   13  C  1 XY   -0.000000   0.000000  -0.000000  -0.000000   0.000000
   14  C  1 XZ   -0.000000   0.000000  -0.000000  -0.000000   0.122565
   15  C  1 YZ   -0.000000   0.000000  -0.000000  -0.000000   1.286883
   16  O  2  S   -0.000000   0.000000   0.000350   0.042126   0.000000
   17  O  2  S   -0.000000   0.000000  -0.851632   0.664121   0.000000
   18  O  2  X    0.143071  -0.010901  -0.000000  -0.000000  -0.012727
   19  O  2  Y    0.010901   0.143071  -0.000000  -0.000000  -0.133631
   20  O  2  Z   -0.000000   0.000000   0.248007   0.132121   0.000000
   21  O  2  S   -0.000000   0.000000   1.685096  -2.776894   0.000000
   22  O  2  X   -0.418281   0.031871  -0.000000  -0.000000  -0.027927
   23  O  2  Y   -0.031871  -0.418281  -0.000000  -0.000000  -0.293224
   24  O  2  Z   -0.000000   0.000000  -1.205389   1.316101   0.000000
   25  O  2 XX   -0.000000   0.000000  -0.335335   0.495418   0.000000
   26  O  2 YY   -0.000000   0.000000  -0.335335   0.495418   0.000000
   27  O  2 ZZ   -0.000000   0.000000   0.762702  -0.954054   0.000000
   28  O  2 XY   -0.000000   0.000000  -0.000000  -0.000000   0.000000
   29  O  2 XZ    0.784057  -0.059741  -0.000000  -0.000000   0.077721
   30  O  2 YZ    0.059741   0.784057  -0.000000  -0.000000   0.816038
   31  O  3  S   -0.000000   0.000000   0.000350  -0.042126   0.000000
   32  O  3  S   -0.000000   0.000000  -0.851632  -0.664121   0.000000
   33  O  3  X    0.143071  -0.010901  -0.000000  -0.000000   0.012727
   34  O  3  Y    0.010901   0.143071  -0.000000  -0.000000   0.133631
   35  O  3  Z   -0.000000   0.000000  -0.248007   0.132121   0.000000
   36  O  3  S   -0.000000   0.000000   1.685096   2.776894   0.000000
   37  O  3  X   -0.418281   0.031871  -0.000000  -0.000000   0.027927
   38  O  3  Y   -0.031871  -0.418281  -0.000000  -0.000000   0.293224
   39  O  3  Z   -0.000000   0.000000   1.205389   1.316101   0.000000
   40  O  3 XX   -0.000000   0.000000  -0.335335  -0.495418   0.000000
   41  O  3 YY   -0.000000   0.000000  -0.335335  -0.495418   0.000000
   42  O  3 ZZ   -0.000000   0.000000   0.762702   0.954054   0.000000
   43  O  3 XY   -0.000000   0.000000  -0.000000  -0.000000   0.000000
   44  O  3 XZ   -0.784057   0.059741  -0.000000  -0.000000   0.077721
   45  O  3 YZ   -0.059741  -0.784057  -0.000000  -0.000000   0.816038

                     41         42         43         44         45
                    3.2836     3.4090     4.1280     4.8046     4.8580
                     A          A          A          A          A   
    1  C  1  S   -0.000000  -0.081223  -0.019128   0.486252   0.000000
    2  C  1  S   -0.000000   2.685238  -0.905837  -2.010708   0.000000
    3  C  1  X   -0.000000  -0.000000   0.000000   0.000000   0.000000
    4  C  1  Y   -0.000000  -0.000000   0.000000   0.000000   0.000000
    5  C  1  Z   -0.000000  -0.000000   0.000000   0.000000   0.091640
    6  C  1  S   -0.000000   1.493622  -2.872613   0.895344   0.000000
    7  C  1  X   -0.000000  -0.000000   0.000000   0.000000   0.000000
    8  C  1  Y   -0.000000  -0.000000   0.000000   0.000000   0.000000
    9  C  1  Z   -0.000000  -0.000000   0.000000   0.000000   5.378946
   10  C  1 XX   -0.000000  -1.177382   0.172465   1.271956   0.000000
   11  C  1 YY   -0.000000  -1.177382   0.172465   1.271956   0.000000
   12  C  1 ZZ   -0.000000   1.002313   0.476547   3.213515   0.000000
   13  C  1 XY   -0.000000  -0.000000   0.000000   0.000000   0.000000
   14  C  1 XZ    1.286883  -0.000000   0.000000   0.000000   0.000000
   15  C  1 YZ   -0.122565  -0.000000   0.000000   0.000000   0.000000
   16  O  2  S   -0.000000  -0.015391  -0.375930   0.056229   0.482394
   17  O  2  S   -0.000000   0.010115  -0.279976  -0.191300   0.837738
   18  O  2  X   -0.133631  -0.000000   0.000000   0.000000   0.000000
   19  O  2  Y    0.012727  -0.000000   0.000000   0.000000   0.000000
   20  O  2  Z   -0.000000   0.596908   0.276753   0.631645  -0.208958
   21  O  2  S   -0.000000  -1.028610   4.139553  -1.405564  -8.113307
   22  O  2  X   -0.293224  -0.000000   0.000000   0.000000   0.000000
   23  O  2  Y    0.027927  -0.000000   0.000000   0.000000   0.000000
   24  O  2  Z   -0.000000   0.823534  -1.101568   0.957340   1.644967
   25  O  2 XX   -0.000000   0.210357  -1.347709   0.324475   1.588622
   26  O  2 YY   -0.000000   0.210357  -1.347709   0.324475   1.588622
   27  O  2 ZZ   -0.000000  -1.097712  -0.973983  -0.600140   1.426172
   28  O  2 XY   -0.000000  -0.000000   0.000000   0.000000   0.000000
   29  O  2 XZ    0.816038  -0.000000   0.000000   0.000000   0.000000
   30  O  2 YZ   -0.077721  -0.000000   0.000000   0.000000   0.000000
   31  O  3  S   -0.000000  -0.015391  -0.375930   0.056229  -0.482394
   32  O  3  S   -0.000000   0.010115  -0.279976  -0.191300  -0.837738
   33  O  3  X    0.133631  -0.000000   0.000000   0.000000   0.000000
   34  O  3  Y   -0.012727  -0.000000   0.000000   0.000000   0.000000
   35  O  3  Z   -0.000000  -0.596908  -0.276753  -0.631645  -0.208958
   36  O  3  S   -0.000000  -1.028610   4.139553  -1.405564   8.113307
   37  O  3  X    0.293224  -0.000000   0.000000   0.000000   0.000000
   38  O  3  Y   -0.027927  -0.000000   0.000000   0.000000   0.000000
   39  O  3  Z   -0.000000  -0.823534   1.101568  -0.957340   1.644967
   40  O  3 XX   -0.000000   0.210357  -1.347709   0.324475  -1.588622
   41  O  3 YY   -0.000000   0.210357  -1.347709   0.324475  -1.588622
   42  O  3 ZZ   -0.000000  -1.097712  -0.973983  -0.600140  -1.426172
   43  O  3 XY   -0.000000  -0.000000   0.000000   0.000000   0.000000
   44  O  3 XZ    0.816038  -0.000000   0.000000   0.000000   0.000000
   45  O  3 YZ   -0.077721  -0.000000   0.000000   0.000000   0.000000

 LZ VALUE ANALYSIS FOR THE MOS
 ----------------------------------------
 MO     1 (    1) HAS LZ(WEIGHT)= 0.00(100.0%) 
 MO     2 (    2) HAS LZ(WEIGHT)= 0.00(100.0%) 
 MO     3 (    3) HAS LZ(WEIGHT)= 0.00(100.0%) 
 MO     4 (    4) HAS LZ(WEIGHT)= 0.00(100.0%) 
 MO     5 (    5) HAS LZ(WEIGHT)= 0.00(100.0%) 
 MO     6 (    6) HAS LZ(WEIGHT)= 0.00(100.0%) 
 MO     7 (    7) HAS LZ(WEIGHT)= 0.00(100.0%) 
 MO     8 (    8) HAS LZ(WEIGHT)=-1.00( 50.0%)  1.00( 50.0%) 
 MO     9 (    8) HAS LZ(WEIGHT)=-1.00( 50.0%)  1.00( 50.0%) 
 MO    10 (    9) HAS LZ(WEIGHT)=-1.00( 50.0%)  1.00( 50.0%) 
 MO    11 (    9) HAS LZ(WEIGHT)=-1.00( 50.0%)  1.00( 50.0%) 
 MO    12 (   10) HAS LZ(WEIGHT)=-1.00( 50.0%)  1.00( 50.0%) 
 MO    13 (   10) HAS LZ(WEIGHT)=-1.00( 50.0%)  1.00( 50.0%) 
 MO    14 (   11) HAS LZ(WEIGHT)= 0.00(100.0%) 
 MO    15 (   12) HAS LZ(WEIGHT)= 0.00(100.0%) 
 MO    16 (   13) HAS LZ(WEIGHT)=-1.00( 50.0%)  1.00( 50.0%) 
 MO    17 (   13) HAS LZ(WEIGHT)=-1.00( 50.0%)  1.00( 50.0%) 
 MO    18 (   14) HAS LZ(WEIGHT)= 0.00(100.0%) 
 MO    19 (   15) HAS LZ(WEIGHT)= 0.00(100.0%) 
 MO    20 (   16) HAS LZ(WEIGHT)= 0.00(100.0%) 
 MO    21 (   17) HAS LZ(WEIGHT)=-1.00( 50.0%)  1.00( 50.0%) 
 MO    22 (   17) HAS LZ(WEIGHT)=-1.00( 50.0%)  1.00( 50.0%) 
 MO    23 (   18) HAS LZ(WEIGHT)=-1.00( 50.0%)  1.00( 50.0%) 
 MO    24 (   18) HAS LZ(WEIGHT)=-1.00( 50.0%)  1.00( 50.0%) 
 MO    25 (   19) HAS LZ(WEIGHT)= 0.00(100.0%) 
 MO    26 (   20) HAS LZ(WEIGHT)= 0.00(100.0%) 
 MO    27 (   21) HAS LZ(WEIGHT)=-2.00( 50.0%)  2.00( 50.0%) 
 MO    28 (   21) HAS LZ(WEIGHT)=-2.00( 50.0%)  2.00( 50.0%) 
 MO    29 (   22) HAS LZ(WEIGHT)=-1.00( 50.0%)  1.00( 50.0%) 
 MO    30 (   22) HAS LZ(WEIGHT)=-1.00( 50.0%)  1.00( 50.0%) 
 MO    31 (   23) HAS LZ(WEIGHT)=-2.00( 50.0%)  2.00( 50.0%) 
 MO    32 (   23) HAS LZ(WEIGHT)=-2.00( 50.0%)  2.00( 50.0%) 
 MO    33 (   24) HAS LZ(WEIGHT)= 0.00(100.0%) 
 MO    34 (   25) HAS LZ(WEIGHT)=-2.00( 50.0%)  2.00( 50.0%) 
 MO    35 (   25) HAS LZ(WEIGHT)=-2.00( 50.0%)  2.00( 50.0%) 
 MO    36 (   26) HAS LZ(WEIGHT)=-1.00( 50.0%)  1.00( 50.0%) 
 MO    37 (   26) HAS LZ(WEIGHT)=-1.00( 50.0%)  1.00( 50.0%) 
 MO    38 (   27) HAS LZ(WEIGHT)= 0.00(100.0%) 
 MO    39 (   28) HAS LZ(WEIGHT)= 0.00(100.0%) 
 MO    40 (   29) HAS LZ(WEIGHT)=-1.00( 50.0%)  1.00( 50.0%) 
 MO    41 (   29) HAS LZ(WEIGHT)=-1.00( 50.0%)  1.00( 50.0%) 
 MO    42 (   30) HAS LZ(WEIGHT)= 0.00(100.0%) 
 MO    43 (   31) HAS LZ(WEIGHT)= 0.00(100.0%) 
 MO    44 (   32) HAS LZ(WEIGHT)= 0.00(100.0%) 
 MO    45 (   33) HAS LZ(WEIGHT)= 0.00(100.0%) 

  ----- BETA SET ----- 

          ------------
          EIGENVECTORS
          ------------

                      1          2          3          4          5
                  -20.6665   -20.6665   -11.4804    -1.5213    -1.4667
                     A          A          A          A          A   
    1  C  1  S   -0.000000  -0.000123   0.995822  -0.148347  -0.000000
    2  C  1  S   -0.000000   0.000413   0.026254   0.292016  -0.000000
    3  C  1  X   -0.000000   0.000000  -0.000000   0.000000  -0.000000
    4  C  1  Y   -0.000000   0.000000  -0.000000   0.000000  -0.000000
    5  C  1  Z    0.000089   0.000000  -0.000000   0.000000  -0.315570
    6  C  1  S   -0.000000  -0.001483  -0.001298   0.040730  -0.000000
    7  C  1  X   -0.000000   0.000000  -0.000000   0.000000  -0.000000
    8  C  1  Y   -0.000000   0.000000  -0.000000   0.000000  -0.000000
    9  C  1  Z    0.000637   0.000000  -0.000000   0.000000   0.017595
   10  C  1 XX   -0.000000  -0.000031  -0.002815  -0.026830  -0.000000
   11  C  1 YY   -0.000000  -0.000031  -0.002815  -0.026830  -0.000000
   12  C  1 ZZ   -0.000000  -0.002658   0.001419   0.047763  -0.000000
   13  C  1 XY   -0.000000   0.000000  -0.000000   0.000000  -0.000000
   14  C  1 XZ   -0.000000   0.000000  -0.000000   0.000000  -0.000000
   15  C  1 YZ   -0.000000   0.000000  -0.000000   0.000000  -0.000000
   16  O  2  S   -0.703357   0.703399  -0.000466  -0.135058   0.146953
   17  O  2  S   -0.014697   0.015011   0.000096   0.295616  -0.327956
   18  O  2  X   -0.000000   0.000000  -0.000000   0.000000  -0.000000
   19  O  2  Y   -0.000000   0.000000  -0.000000   0.000000  -0.000000
   20  O  2  Z    0.001187  -0.001783   0.000180  -0.101884   0.102540
   21  O  2  S   -0.003329   0.003580  -0.002055   0.260864  -0.278722
   22  O  2  X   -0.000000   0.000000  -0.000000   0.000000  -0.000000
   23  O  2  Y   -0.000000   0.000000  -0.000000   0.000000  -0.000000
   24  O  2  Z   -0.000092  -0.000611   0.002212  -0.046382   0.026908
   25  O  2 XX    0.002846  -0.002880   0.000159  -0.002434   0.001521
   26  O  2 YY    0.002846  -0.002880   0.000159  -0.002434   0.001521
   27  O  2 ZZ    0.002623  -0.001774  -0.000716   0.012741  -0.014778
   28  O  2 XY   -0.000000   0.000000  -0.000000   0.000000  -0.000000
   29  O  2 XZ   -0.000000   0.000000  -0.000000   0.000000  -0.000000
   30  O  2 YZ   -0.000000   0.000000  -0.000000   0.000000  -0.000000
   31  O  3  S    0.703357   0.703399  -0.000466  -0.135058  -0.146953
   32  O  3  S    0.014697   0.015011   0.000096   0.295616   0.327956
   33  O  3  X   -0.000000   0.000000  -0.000000   0.000000  -0.000000
   34  O  3  Y   -0.000000   0.000000  -0.000000   0.000000  -0.000000
   35  O  3  Z    0.001187   0.001783  -0.000180   0.101884   0.102540
   36  O  3  S    0.003329   0.003580  -0.002055   0.260864   0.278722
   37  O  3  X   -0.000000   0.000000  -0.000000   0.000000  -0.000000
   38  O  3  Y   -0.000000   0.000000  -0.000000   0.000000  -0.000000
   39  O  3  Z   -0.000092   0.000611  -0.002212   0.046382   0.026908
   40  O  3 XX   -0.002846  -0.002880   0.000159  -0.002434  -0.001521
   41  O  3 YY   -0.002846  -0.002880   0.000159  -0.002434  -0.001521
   42  O  3 ZZ   -0.002623  -0.001774  -0.000716   0.012741   0.014778
   43  O  3 XY   -0.000000   0.000000  -0.000000   0.000000  -0.000000
   44  O  3 XZ   -0.000000   0.000000  -0.000000   0.000000  -0.000000
   45  O  3 YZ   -0.000000   0.000000  -0.000000   0.000000  -0.000000

                      6          7          8          9         10
                   -0.7970    -0.7329    -0.7034    -0.7034    -0.5378
                     A          A          A          A          A   
    1  C  1  S   -0.135206   0.000000  -0.000000  -0.000000  -0.000000
    2  C  1  S    0.325039   0.000000  -0.000000  -0.000000  -0.000000
    3  C  1  X   -0.000000   0.000000   0.332083   0.116465  -0.000000
    4  C  1  Y   -0.000000   0.000000  -0.116465   0.332083  -0.000000
    5  C  1  Z   -0.000000  -0.371597  -0.000000  -0.000000  -0.000000
    6  C  1  S    0.164735   0.000000  -0.000000  -0.000000  -0.000000
    7  C  1  X   -0.000000   0.000000   0.125689   0.044080  -0.000000
    8  C  1  Y   -0.000000   0.000000  -0.044080   0.125689  -0.000000
    9  C  1  Z   -0.000000  -0.002664  -0.000000  -0.000000  -0.000000
   10  C  1 XX   -0.013684   0.000000  -0.000000  -0.000000  -0.000000
   11  C  1 YY   -0.013684   0.000000  -0.000000  -0.000000  -0.000000
   12  C  1 ZZ    0.009938   0.000000  -0.000000  -0.000000  -0.000000
   13  C  1 XY   -0.000000   0.000000  -0.000000  -0.000000  -0.000000
   14  C  1 XZ   -0.000000   0.000000  -0.000000  -0.000000   0.067450
   15  C  1 YZ   -0.000000   0.000000  -0.000000  -0.000000  -0.008390
   16  O  2  S    0.087195  -0.064118  -0.000000  -0.000000  -0.000000
   17  O  2  S   -0.207887   0.155169  -0.000000  -0.000000  -0.000000
   18  O  2  X   -0.000000   0.000000   0.343506   0.120471   0.451060
   19  O  2  Y   -0.000000   0.000000  -0.120471   0.343506  -0.056108
   20  O  2  Z   -0.328509   0.386026  -0.000000  -0.000000  -0.000000
   21  O  2  S   -0.311343   0.257532  -0.000000  -0.000000  -0.000000
   22  O  2  X   -0.000000   0.000000   0.213135   0.074749   0.341503
   23  O  2  Y   -0.000000   0.000000  -0.074749   0.213135  -0.042480
   24  O  2  Z   -0.174595   0.197247  -0.000000  -0.000000  -0.000000
   25  O  2 XX   -0.007442   0.008564  -0.000000  -0.000000  -0.000000
   26  O  2 YY   -0.007442   0.008564  -0.000000  -0.000000  -0.000000
   27  O  2 ZZ    0.022455  -0.024641  -0.000000  -0.000000  -0.000000
   28  O  2 XY   -0.000000   0.000000  -0.000000  -0.000000  -0.000000
   29  O  2 XZ   -0.000000   0.000000  -0.031934  -0.011200  -0.026668
   30  O  2 YZ   -0.000000   0.000000   0.011200  -0.031934   0.003317
   31  O  3  S    0.087195   0.064118  -0.000000  -0.000000  -0.000000
   32  O  3  S   -0.207887  -0.155169  -0.000000  -0.000000  -0.000000
   33  O  3  X   -0.000000   0.000000   0.343506   0.120471  -0.451060
   34  O  3  Y   -0.000000   0.000000  -0.120471   0.343506   0.056108
   35  O  3  Z    0.328509   0.386026  -0.000000  -0.000000  -0.000000
   36  O  3  S   -0.311343  -0.257532  -0.000000  -0.000000  -0.000000
   37  O  3  X   -0.000000   0.000000   0.213135   0.074749  -0.341503
   38  O  3  Y   -0.000000   0.000000  -0.074749   0.213135   0.042480
   39  O  3  Z    0.174595   0.197247  -0.000000  -0.000000  -0.000000
   40  O  3 XX   -0.007442  -0.008564  -0.000000  -0.000000  -0.000000
   41  O  3 YY   -0.007442  -0.008564  -0.000000  -0.000000  -0.000000
   42  O  3 ZZ    0.022455   0.024641  -0.000000  -0.000000  -0.000000
   43  O  3 XY   -0.000000   0.000000  -0.000000  -0.000000  -0.000000
   44  O  3 XZ   -0.000000   0.000000   0.031934   0.011200  -0.026668
   45  O  3 YZ   -0.000000   0.000000  -0.011200   0.031934   0.003317

                     11         12         13         14         15
                   -0.5378     0.2012     0.2012     0.2527     0.5124
                     A          A          A          A          A   
    1  C  1  S   -0.000000  -0.000000   0.000000  -0.088730   0.000000
    2  C  1  S   -0.000000  -0.000000   0.000000  -0.027527   0.000000
    3  C  1  X   -0.000000  -0.264669   0.459729  -0.000000   0.000000
    4  C  1  Y   -0.000000   0.459729   0.264669  -0.000000   0.000000
    5  C  1  Z   -0.000000  -0.000000   0.000000  -0.000000   0.049555
    6  C  1  S   -0.000000  -0.000000   0.000000   2.460073   0.000000
    7  C  1  X   -0.000000  -0.376675   0.654282  -0.000000   0.000000
    8  C  1  Y   -0.000000   0.654282   0.376675  -0.000000   0.000000
    9  C  1  Z   -0.000000  -0.000000   0.000000  -0.000000   4.295454
   10  C  1 XX   -0.000000  -0.000000   0.000000   0.008050   0.000000
   11  C  1 YY   -0.000000  -0.000000   0.000000   0.008050   0.000000
   12  C  1 ZZ   -0.000000  -0.000000   0.000000  -0.022931   0.000000
   13  C  1 XY   -0.000000  -0.000000   0.000000  -0.000000   0.000000
   14  C  1 XZ   -0.008390  -0.000000   0.000000  -0.000000   0.000000
   15  C  1 YZ   -0.067450  -0.000000   0.000000  -0.000000   0.000000
   16  O  2  S   -0.000000  -0.000000   0.000000   0.075224   0.101202
   17  O  2  S   -0.000000  -0.000000   0.000000  -0.143607   0.031725
   18  O  2  X   -0.056108   0.163951  -0.284781  -0.000000   0.000000
   19  O  2  Y   -0.451060  -0.284781  -0.163951  -0.000000   0.000000
   20  O  2  Z   -0.000000  -0.000000   0.000000   0.246921  -0.083510
   21  O  2  S   -0.000000  -0.000000   0.000000  -0.967074  -3.147912
   22  O  2  X   -0.042480   0.222167  -0.385904  -0.000000   0.000000
   23  O  2  Y   -0.341503  -0.385904  -0.222167  -0.000000   0.000000
   24  O  2  Z   -0.000000  -0.000000   0.000000   0.632440   0.907447
   25  O  2 XX   -0.000000  -0.000000   0.000000   0.025003   0.086060
   26  O  2 YY   -0.000000  -0.000000   0.000000   0.025003   0.086060
   27  O  2 ZZ   -0.000000  -0.000000   0.000000  -0.043769   0.013278
   28  O  2 XY   -0.000000  -0.000000   0.000000  -0.000000   0.000000
   29  O  2 XZ    0.003317   0.007675  -0.013332  -0.000000   0.000000
   30  O  2 YZ    0.026668  -0.013332  -0.007675  -0.000000   0.000000
   31  O  3  S   -0.000000  -0.000000   0.000000   0.075224  -0.101202
   32  O  3  S   -0.000000  -0.000000   0.000000  -0.143607  -0.031725
   33  O  3  X    0.056108   0.163951  -0.284781  -0.000000   0.000000
   34  O  3  Y    0.451060  -0.284781  -0.163951  -0.000000   0.000000
   35  O  3  Z   -0.000000  -0.000000   0.000000  -0.246921  -0.083510
   36  O  3  S   -0.000000  -0.000000   0.000000  -0.967074   3.147912
   37  O  3  X    0.042480   0.222167  -0.385904  -0.000000   0.000000
   38  O  3  Y    0.341503  -0.385904  -0.222167  -0.000000   0.000000
   39  O  3  Z   -0.000000  -0.000000   0.000000  -0.632440   0.907447
   40  O  3 XX   -0.000000  -0.000000   0.000000   0.025003  -0.086060
   41  O  3 YY   -0.000000  -0.000000   0.000000   0.025003  -0.086060
   42  O  3 ZZ   -0.000000  -0.000000   0.000000  -0.043769  -0.013278
   43  O  3 XY   -0.000000  -0.000000   0.000000  -0.000000   0.000000
   44  O  3 XZ    0.003317  -0.007675   0.013332  -0.000000   0.000000
   45  O  3 YZ    0.026668   0.013332   0.007675  -0.000000   0.000000

                     16         17         18         19         20
                    0.6684     0.6684     0.8027     0.9631     0.9954
                     A          A          A          A          A   
    1  C  1  S    0.000000   0.000000   0.116449   0.000000   0.074107
    2  C  1  S    0.000000   0.000000  -1.224533   0.000000   0.901595
    3  C  1  X   -0.977022   0.043117  -0.000000   0.000000  -0.000000
    4  C  1  Y   -0.043117  -0.977022  -0.000000   0.000000  -0.000000
    5  C  1  Z    0.000000   0.000000  -0.000000   1.036214  -0.000000
    6  C  1  S    0.000000   0.000000   1.853127   0.000000   0.209357
    7  C  1  X    1.280325  -0.056502  -0.000000   0.000000  -0.000000
    8  C  1  Y    0.056502   1.280325  -0.000000   0.000000  -0.000000
    9  C  1  Z    0.000000   0.000000  -0.000000  -0.216017  -0.000000
   10  C  1 XX    0.000000   0.000000  -0.176848   0.000000  -0.036892
   11  C  1 YY    0.000000   0.000000  -0.176848   0.000000  -0.036892
   12  C  1 ZZ    0.000000   0.000000   0.273786   0.000000   0.441579
   13  C  1 XY    0.000000   0.000000  -0.000000   0.000000  -0.000000
   14  C  1 XZ    0.000000   0.000000  -0.000000   0.000000  -0.000000
   15  C  1 YZ    0.000000   0.000000  -0.000000   0.000000  -0.000000
   16  O  2  S    0.000000   0.000000  -0.020300   0.038702   0.004417
   17  O  2  S    0.000000   0.000000   0.069977  -0.253829  -0.376538
   18  O  2  X   -0.077571   0.003423  -0.000000   0.000000  -0.000000
   19  O  2  Y   -0.003423  -0.077571  -0.000000   0.000000  -0.000000
   20  O  2  Z    0.000000   0.000000  -0.338642  -0.072772  -0.366213
   21  O  2  S    0.000000   0.000000  -0.474048  -0.030921   0.260285
   22  O  2  X   -0.140796   0.006213  -0.000000   0.000000  -0.000000
   23  O  2  Y   -0.006213  -0.140796  -0.000000   0.000000  -0.000000
   24  O  2  Z    0.000000   0.000000   0.254561   0.887373   1.041448
   25  O  2 XX    0.000000   0.000000   0.052303  -0.110970  -0.132868
   26  O  2 YY    0.000000   0.000000   0.052303  -0.110970  -0.132868
   27  O  2 ZZ    0.000000   0.000000  -0.202553   0.038955  -0.271114
   28  O  2 XY    0.000000   0.000000  -0.000000   0.000000  -0.000000
   29  O  2 XZ    0.073671  -0.003251  -0.000000   0.000000  -0.000000
   30  O  2 YZ    0.003251   0.073671  -0.000000   0.000000  -0.000000
   31  O  3  S    0.000000   0.000000  -0.020300  -0.038702   0.004417
   32  O  3  S    0.000000   0.000000   0.069977   0.253829  -0.376538
   33  O  3  X   -0.077571   0.003423  -0.000000   0.000000  -0.000000
   34  O  3  Y   -0.003423  -0.077571  -0.000000   0.000000  -0.000000
   35  O  3  Z    0.000000   0.000000   0.338642  -0.072772   0.366213
   36  O  3  S    0.000000   0.000000  -0.474048   0.030921   0.260285
   37  O  3  X   -0.140796   0.006213  -0.000000   0.000000  -0.000000
   38  O  3  Y   -0.006213  -0.140796  -0.000000   0.000000  -0.000000
   39  O  3  Z    0.000000   0.000000  -0.254561   0.887373  -1.041448
   40  O  3 XX    0.000000   0.000000   0.052303   0.110970  -0.132868
   41  O  3 YY    0.000000   0.000000   0.052303   0.110970  -0.132868
   42  O  3 ZZ    0.000000   0.000000  -0.202553  -0.038955  -0.271114
   43  O  3 XY    0.000000   0.000000  -0.000000   0.000000  -0.000000
   44  O  3 XZ   -0.073671   0.003251  -0.000000   0.000000  -0.000000
   45  O  3 YZ   -0.003251  -0.073671  -0.000000   0.000000  -0.000000

                     21         22         23         24         25
                    1.1494     1.1494     1.3202     1.3202     1.3679
                     A          A          A          A          A   
    1  C  1  S    0.000000  -0.000000   0.000000   0.000000  -0.000000
    2  C  1  S    0.000000  -0.000000   0.000000   0.000000  -0.000000
    3  C  1  X    0.000000  -0.000000   0.002392   0.184338  -0.000000
    4  C  1  Y    0.000000  -0.000000   0.184338  -0.002392  -0.000000
    5  C  1  Z    0.000000  -0.000000   0.000000   0.000000   0.591863
    6  C  1  S    0.000000  -0.000000   0.000000   0.000000  -0.000000
    7  C  1  X    0.000000  -0.000000  -0.012540  -0.966403  -0.000000
    8  C  1  Y    0.000000  -0.000000  -0.966403   0.012540  -0.000000
    9  C  1  Z    0.000000  -0.000000   0.000000   0.000000   1.067205
   10  C  1 XX    0.000000  -0.000000   0.000000   0.000000  -0.000000
   11  C  1 YY    0.000000  -0.000000   0.000000   0.000000  -0.000000
   12  C  1 ZZ    0.000000  -0.000000   0.000000   0.000000  -0.000000
   13  C  1 XY    0.000000  -0.000000   0.000000   0.000000  -0.000000
   14  C  1 XZ    0.042430  -0.163522   0.000000   0.000000  -0.000000
   15  C  1 YZ    0.163522   0.042430   0.000000   0.000000  -0.000000
   16  O  2  S    0.000000  -0.000000   0.000000   0.000000   0.057326
   17  O  2  S    0.000000  -0.000000   0.000000   0.000000   0.023507
   18  O  2  X    0.163291  -0.629311  -0.008654  -0.666925  -0.000000
   19  O  2  Y    0.629311   0.163291  -0.666925   0.008654  -0.000000
   20  O  2  Z    0.000000  -0.000000   0.000000   0.000000   0.733681
   21  O  2  S    0.000000  -0.000000   0.000000   0.000000  -1.198608
   22  O  2  X   -0.202479   0.780340   0.014015   1.080075  -0.000000
   23  O  2  Y   -0.780340  -0.202479   1.080075  -0.014015  -0.000000
   24  O  2  Z    0.000000  -0.000000   0.000000   0.000000  -0.297621
   25  O  2 XX    0.000000  -0.000000   0.000000   0.000000   0.040816
   26  O  2 YY    0.000000  -0.000000   0.000000   0.000000   0.040816
   27  O  2 ZZ    0.000000  -0.000000   0.000000   0.000000   0.204731
   28  O  2 XY    0.000000  -0.000000   0.000000   0.000000  -0.000000
   29  O  2 XZ   -0.004926   0.018986   0.000967   0.074502  -0.000000
   30  O  2 YZ   -0.018986  -0.004926   0.074502  -0.000967  -0.000000
   31  O  3  S    0.000000  -0.000000   0.000000   0.000000  -0.057326
   32  O  3  S    0.000000  -0.000000   0.000000   0.000000  -0.023507
   33  O  3  X   -0.163291   0.629311  -0.008654  -0.666925  -0.000000
   34  O  3  Y   -0.629311  -0.163291  -0.666925   0.008654  -0.000000
   35  O  3  Z    0.000000  -0.000000   0.000000   0.000000   0.733681
   36  O  3  S    0.000000  -0.000000   0.000000   0.000000   1.198608
   37  O  3  X    0.202479  -0.780340   0.014015   1.080075  -0.000000
   38  O  3  Y    0.780340   0.202479   1.080075  -0.014015  -0.000000
   39  O  3  Z    0.000000  -0.000000   0.000000   0.000000  -0.297621
   40  O  3 XX    0.000000  -0.000000   0.000000   0.000000  -0.040816
   41  O  3 YY    0.000000  -0.000000   0.000000   0.000000  -0.040816
   42  O  3 ZZ    0.000000  -0.000000   0.000000   0.000000  -0.204731
   43  O  3 XY    0.000000  -0.000000   0.000000   0.000000  -0.000000
   44  O  3 XZ   -0.004926   0.018986  -0.000967  -0.074502  -0.000000
   45  O  3 YZ   -0.018986  -0.004926  -0.074502   0.000967  -0.000000

                     26         27         28         29         30
                    1.5958     1.6472     1.6472     1.6677     1.6677
                     A          A          A          A          A   
    1  C  1  S    0.053913   0.000000   0.000000  -0.000000  -0.000000
    2  C  1  S    0.429298   0.000000   0.000000  -0.000000  -0.000000
    3  C  1  X    0.000000   0.000000   0.000000  -0.000000  -0.000000
    4  C  1  Y    0.000000   0.000000   0.000000  -0.000000  -0.000000
    5  C  1  Z    0.000000   0.000000   0.000000  -0.000000  -0.000000
    6  C  1  S    3.712671   0.000000   0.000000  -0.000000  -0.000000
    7  C  1  X    0.000000   0.000000   0.000000  -0.000000  -0.000000
    8  C  1  Y    0.000000   0.000000   0.000000  -0.000000  -0.000000
    9  C  1  Z    0.000000   0.000000   0.000000  -0.000000  -0.000000
   10  C  1 XX   -0.166956   0.648318  -0.000001  -0.000000  -0.000000
   11  C  1 YY   -0.166956  -0.648318   0.000001  -0.000000  -0.000000
   12  C  1 ZZ    0.332811   0.000000   0.000000  -0.000000  -0.000000
   13  C  1 XY    0.000000   0.000001   0.748613  -0.000000  -0.000000
   14  C  1 XZ    0.000000   0.000000   0.000000   0.108669   0.526000
   15  C  1 YZ    0.000000   0.000000   0.000000   0.526000  -0.108669
   16  O  2  S    0.075062   0.000000   0.000000  -0.000000  -0.000000
   17  O  2  S    1.167267   0.000000   0.000000  -0.000000  -0.000000
   18  O  2  X    0.000000   0.000000   0.000000  -0.041044  -0.198671
   19  O  2  Y    0.000000   0.000000   0.000000  -0.198671   0.041044
   20  O  2  Z   -0.080541   0.000000   0.000000  -0.000000  -0.000000
   21  O  2  S   -3.592293   0.000000   0.000000  -0.000000  -0.000000
   22  O  2  X    0.000000   0.000000   0.000000  -0.003410  -0.016504
   23  O  2  Y    0.000000   0.000000   0.000000  -0.016504   0.003410
   24  O  2  Z    1.397398   0.000000   0.000000  -0.000000  -0.000000
   25  O  2 XX    0.247443   0.326753  -0.000000  -0.000000  -0.000000
   26  O  2 YY    0.247443  -0.326753   0.000000  -0.000000  -0.000000
   27  O  2 ZZ    0.390977   0.000000   0.000000  -0.000000  -0.000000
   28  O  2 XY    0.000000   0.000000   0.377302  -0.000000  -0.000000
   29  O  2 XZ    0.000000   0.000000   0.000000  -0.084735  -0.410152
   30  O  2 YZ    0.000000   0.000000   0.000000  -0.410152   0.084735
   31  O  3  S    0.075062   0.000000   0.000000  -0.000000  -0.000000
   32  O  3  S    1.167267   0.000000   0.000000  -0.000000  -0.000000
   33  O  3  X    0.000000   0.000000   0.000000   0.041044   0.198671
   34  O  3  Y    0.000000   0.000000   0.000000   0.198671  -0.041044
   35  O  3  Z    0.080541   0.000000   0.000000  -0.000000  -0.000000
   36  O  3  S   -3.592293   0.000000   0.000000  -0.000000  -0.000000
   37  O  3  X    0.000000   0.000000   0.000000   0.003410   0.016504
   38  O  3  Y    0.000000   0.000000   0.000000   0.016504  -0.003410
   39  O  3  Z   -1.397398   0.000000   0.000000  -0.000000  -0.000000
   40  O  3 XX    0.247443   0.326753  -0.000000  -0.000000  -0.000000
   41  O  3 YY    0.247443  -0.326753   0.000000  -0.000000  -0.000000
   42  O  3 ZZ    0.390977   0.000000   0.000000  -0.000000  -0.000000
   43  O  3 XY    0.000000   0.000000   0.377302  -0.000000  -0.000000
   44  O  3 XZ    0.000000   0.000000   0.000000  -0.084735  -0.410152
   45  O  3 YZ    0.000000   0.000000   0.000000  -0.410152   0.084735

                     31         32         33         34         35
                    2.0159     2.0159     2.0832     2.3218     2.3218
                     A          A          A          A          A   
    1  C  1  S   -0.000000  -0.000000   0.000000  -0.000000  -0.000000
    2  C  1  S   -0.000000  -0.000000   0.000000  -0.000000  -0.000000
    3  C  1  X   -0.000000  -0.000000   0.000000  -0.000000  -0.000000
    4  C  1  Y   -0.000000  -0.000000   0.000000  -0.000000  -0.000000
    5  C  1  Z   -0.000000  -0.000000   0.139429  -0.000000  -0.000000
    6  C  1  S   -0.000000  -0.000000   0.000000  -0.000000  -0.000000
    7  C  1  X   -0.000000  -0.000000   0.000000  -0.000000  -0.000000
    8  C  1  Y   -0.000000  -0.000000   0.000000  -0.000000  -0.000000
    9  C  1  Z   -0.000000  -0.000000   5.283077  -0.000000  -0.000000
   10  C  1 XX   -0.000000  -0.000000   0.000000   0.599096  -0.000000
   11  C  1 YY   -0.000000  -0.000000   0.000000  -0.599096   0.000000
   12  C  1 ZZ   -0.000000  -0.000000   0.000000  -0.000000  -0.000000
   13  C  1 XY   -0.000000  -0.000000   0.000000   0.000000   0.691777
   14  C  1 XZ   -0.000000  -0.000000   0.000000  -0.000000  -0.000000
   15  C  1 YZ   -0.000000  -0.000000   0.000000  -0.000000  -0.000000
   16  O  2  S   -0.000000  -0.000000   0.085109  -0.000000  -0.000000
   17  O  2  S   -0.000000  -0.000000   1.656021  -0.000000  -0.000000
   18  O  2  X   -0.000000  -0.000000   0.000000  -0.000000  -0.000000
   19  O  2  Y   -0.000000  -0.000000   0.000000  -0.000000  -0.000000
   20  O  2  Z   -0.000000  -0.000000  -0.151760  -0.000000  -0.000000
   21  O  2  S   -0.000000  -0.000000  -6.131886  -0.000000  -0.000000
   22  O  2  X   -0.000000  -0.000000   0.000000  -0.000000  -0.000000
   23  O  2  Y   -0.000000  -0.000000   0.000000  -0.000000  -0.000000
   24  O  2  Z   -0.000000  -0.000000   1.462433  -0.000000  -0.000000
   25  O  2 XX   -0.612480  -0.000000   0.213013  -0.531707   0.000000
   26  O  2 YY    0.612480   0.000000   0.213013   0.531707  -0.000000
   27  O  2 ZZ   -0.000000  -0.000000   0.518209  -0.000000  -0.000000
   28  O  2 XY    0.000000  -0.707231   0.000000  -0.000000  -0.613962
   29  O  2 XZ   -0.000000  -0.000000   0.000000  -0.000000  -0.000000
   30  O  2 YZ   -0.000000  -0.000000   0.000000  -0.000000  -0.000000
   31  O  3  S   -0.000000  -0.000000  -0.085109  -0.000000  -0.000000
   32  O  3  S   -0.000000  -0.000000  -1.656021  -0.000000  -0.000000
   33  O  3  X   -0.000000  -0.000000   0.000000  -0.000000  -0.000000
   34  O  3  Y   -0.000000  -0.000000   0.000000  -0.000000  -0.000000
   35  O  3  Z   -0.000000  -0.000000  -0.151760  -0.000000  -0.000000
   36  O  3  S   -0.000000  -0.000000   6.131886  -0.000000  -0.000000
   37  O  3  X   -0.000000  -0.000000   0.000000  -0.000000  -0.000000
   38  O  3  Y   -0.000000  -0.000000   0.000000  -0.000000  -0.000000
   39  O  3  Z   -0.000000  -0.000000   1.462433  -0.000000  -0.000000
   40  O  3 XX    0.612480   0.000000  -0.213013  -0.531707   0.000000
[...]
   18  O  2  X    0.000000   0.000000   0.358604   0.051979   0.447726
   19  O  2  Y    0.000000   0.000000  -0.051979   0.358604  -0.080993
   20  O  2  Z   -0.337306   0.389315   0.000000   0.000000   0.000000
   21  O  2  S   -0.311077   0.271894  -0.000000  -0.000000  -0.000000
   22  O  2  X    0.000000   0.000000   0.218702   0.031700   0.337104
   23  O  2  Y    0.000000   0.000000  -0.031700   0.218702  -0.060981
   24  O  2  Z   -0.179741   0.191168   0.000000   0.000000   0.000000
   25  O  2 XX   -0.008116   0.008836   0.000000   0.000000   0.000000
   26  O  2 YY   -0.008116   0.008836   0.000000   0.000000   0.000000
   27  O  2 ZZ    0.022914  -0.024485  -0.000000  -0.000000   0.000000
   28  O  2 XY    0.000000   0.000000   0.000000   0.000000   0.000000
   29  O  2 XZ    0.000000   0.000000  -0.034364  -0.004981  -0.026375
   30  O  2 YZ    0.000000   0.000000   0.004981  -0.034364   0.004771
   31  O  3  S    0.086691   0.065192   0.000000   0.000000   0.000000
   32  O  3  S   -0.206952  -0.157151   0.000000   0.000000  -0.000000
   33  O  3  X    0.000000   0.000000   0.358604   0.051979  -0.447726
   34  O  3  Y    0.000000   0.000000  -0.051979   0.358604   0.080993
   35  O  3  Z    0.337306   0.389315   0.000000   0.000000   0.000000
   36  O  3  S   -0.311077  -0.271894  -0.000000  -0.000000   0.000000
   37  O  3  X    0.000000   0.000000   0.218702   0.031700  -0.337104
   38  O  3  Y    0.000000   0.000000  -0.031700   0.218702   0.060981
   39  O  3  Z    0.179741   0.191168  -0.000000  -0.000000   0.000000
   40  O  3 XX   -0.008116  -0.008836   0.000000   0.000000  -0.000000
   41  O  3 YY   -0.008116  -0.008836   0.000000   0.000000  -0.000000
   42  O  3 ZZ    0.022914   0.024485  -0.000000  -0.000000   0.000000
   43  O  3 XY    0.000000   0.000000   0.000000   0.000000   0.000000
   44  O  3 XZ    0.000000   0.000000   0.034364   0.004981  -0.026375
   45  O  3 YZ    0.000000   0.000000  -0.004981   0.034364   0.004771

                     11         12         13         14         15
                   -0.5400     0.2306     0.2306     0.2664     0.5100
                     A          A          A          A          A   
    1  C  1  S    0.000000   0.000000   0.000000   0.071257   0.000000
    2  C  1  S    0.000000   0.000000   0.000000   0.036977   0.000000
    3  C  1  X    0.000000   0.485574   0.188949   0.000000   0.000000
    4  C  1  Y    0.000000  -0.188949   0.485574   0.000000   0.000000
    5  C  1  Z   -0.000000   0.000000   0.000000   0.000000  -0.058981
    6  C  1  S    0.000000   0.000000   0.000000  -2.681512  -0.000000
    7  C  1  X    0.000000   0.754814   0.293717   0.000000   0.000000
    8  C  1  Y    0.000000  -0.293717   0.754814   0.000000   0.000000
    9  C  1  Z   -0.000000   0.000000   0.000000  -0.000000  -4.360319
   10  C  1 XX    0.000000   0.000000   0.000000  -0.003846   0.000000
   11  C  1 YY    0.000000   0.000000   0.000000  -0.003846   0.000000
   12  C  1 ZZ    0.000000   0.000000   0.000000   0.008083   0.000000
   13  C  1 XY    0.000000   0.000000   0.000000   0.000000   0.000000
   14  C  1 XZ   -0.012663   0.000000   0.000000   0.000000   0.000000
   15  C  1 YZ   -0.069998   0.000000   0.000000   0.000000   0.000000
   16  O  2  S    0.000000   0.000000   0.000000  -0.078197  -0.101581
   17  O  2  S   -0.000000   0.000000   0.000000   0.136376  -0.043516
   18  O  2  X   -0.080993  -0.309783  -0.120544  -0.000000   0.000000
   19  O  2  Y   -0.447726   0.120544  -0.309783  -0.000000   0.000000
   20  O  2  Z    0.000000   0.000000   0.000000  -0.221729   0.091851
   21  O  2  S    0.000000  -0.000000  -0.000000   1.103762   3.270383
   22  O  2  X   -0.060981  -0.443607  -0.172618  -0.000000   0.000000
   23  O  2  Y   -0.337104   0.172618  -0.443607  -0.000000   0.000000
   24  O  2  Z   -0.000000   0.000000   0.000000  -0.662014  -0.861108
   25  O  2 XX   -0.000000   0.000000   0.000000  -0.032736  -0.087839
   26  O  2 YY   -0.000000   0.000000   0.000000  -0.032736  -0.087839
   27  O  2 ZZ    0.000000   0.000000  -0.000000   0.049771  -0.020531
   28  O  2 XY    0.000000   0.000000   0.000000   0.000000   0.000000
   29  O  2 XZ    0.004771  -0.014765  -0.005745   0.000000   0.000000
   30  O  2 YZ    0.026375   0.005745  -0.014765   0.000000   0.000000
   31  O  3  S    0.000000   0.000000   0.000000  -0.078197   0.101581
   32  O  3  S    0.000000   0.000000   0.000000   0.136376   0.043516
   33  O  3  X    0.080993  -0.309783  -0.120544  -0.000000  -0.000000
   34  O  3  Y    0.447726   0.120544  -0.309783  -0.000000  -0.000000
   35  O  3  Z    0.000000   0.000000  -0.000000   0.221729   0.091851
   36  O  3  S   -0.000000  -0.000000  -0.000000   1.103762  -3.270383
   37  O  3  X    0.060981  -0.443607  -0.172618  -0.000000   0.000000
   38  O  3  Y    0.337104   0.172618  -0.443607  -0.000000   0.000000
   39  O  3  Z   -0.000000  -0.000000  -0.000000   0.662014  -0.861108
   40  O  3 XX    0.000000   0.000000   0.000000  -0.032736   0.087839
   41  O  3 YY    0.000000   0.000000   0.000000  -0.032736   0.087839
   42  O  3 ZZ    0.000000   0.000000  -0.000000   0.049771   0.020531
   43  O  3 XY    0.000000   0.000000   0.000000   0.000000   0.000000
   44  O  3 XZ    0.004771   0.014765   0.005745   0.000000   0.000000
   45  O  3 YZ    0.026375  -0.005745   0.014765   0.000000   0.000000

                     16         17         18         19         20
                    0.6634     0.6634     0.8430     0.9830     0.9923
                     A          A          A          A          A   
    1  C  1  S    0.000000   0.000000   0.135449  -0.000000  -0.076640
    2  C  1  S   -0.000000   0.000000  -1.069724  -0.000000  -1.086959
    3  C  1  X   -0.968400   0.050728   0.000000   0.000000   0.000000
    4  C  1  Y    0.050728   0.968400   0.000000   0.000000   0.000000
    5  C  1  Z    0.000000   0.000000   0.000000  -0.976750   0.000000
    6  C  1  S    0.000000  -0.000000   1.849532  -0.000000  -0.192374
    7  C  1  X    1.275240  -0.066802  -0.000000   0.000000   0.000000
    8  C  1  Y   -0.066802  -1.275240  -0.000000   0.000000   0.000000
    9  C  1  Z    0.000000   0.000000  -0.000000   0.227440  -0.000000
   10  C  1 XX    0.000000   0.000000  -0.197960   0.000000   0.028103
   11  C  1 YY    0.000000   0.000000  -0.197960   0.000000   0.028103
   12  C  1 ZZ    0.000000   0.000000   0.334392  -0.000000  -0.407928
   13  C  1 XY    0.000000   0.000000   0.000000   0.000000   0.000000
   14  C  1 XZ    0.000000   0.000000   0.000000   0.000000   0.000000
   15  C  1 YZ    0.000000   0.000000   0.000000   0.000000   0.000000
   16  O  2  S    0.000000   0.000000  -0.023834  -0.034230  -0.006458
   17  O  2  S    0.000000   0.000000   0.086656   0.230329   0.373453
   18  O  2  X   -0.069855   0.003659   0.000000   0.000000   0.000000
   19  O  2  Y    0.003659   0.069855   0.000000   0.000000   0.000000
   20  O  2  Z    0.000000   0.000000  -0.369466   0.146034   0.325010
   21  O  2  S   -0.000000   0.000000  -0.544516   0.059110  -0.182428
   22  O  2  X   -0.134615   0.007052   0.000000   0.000000   0.000000
   23  O  2  Y    0.007052   0.134615   0.000000   0.000000   0.000000
   24  O  2  Z    0.000000   0.000000   0.340162  -0.975188  -1.071469
   25  O  2 XX    0.000000   0.000000   0.059579   0.108857   0.130427
   26  O  2 YY    0.000000   0.000000   0.059579   0.108857   0.130427
   27  O  2 ZZ    0.000000   0.000000  -0.223785  -0.022533   0.252601
   28  O  2 XY    0.000000   0.000000   0.000000   0.000000   0.000000
   29  O  2 XZ    0.077322  -0.004050   0.000000   0.000000   0.000000
   30  O  2 YZ   -0.004050  -0.077322   0.000000   0.000000   0.000000
   31  O  3  S    0.000000   0.000000  -0.023834   0.034230  -0.006458
   32  O  3  S    0.000000   0.000000   0.086656  -0.230329   0.373453
   33  O  3  X   -0.069855   0.003659   0.000000  -0.000000   0.000000
   34  O  3  Y    0.003659   0.069855   0.000000  -0.000000   0.000000
   35  O  3  Z    0.000000   0.000000   0.369466   0.146034  -0.325010
   36  O  3  S   -0.000000   0.000000  -0.544516  -0.059110  -0.182428
   37  O  3  X   -0.134615   0.007052   0.000000   0.000000   0.000000
   38  O  3  Y    0.007052   0.134615   0.000000   0.000000   0.000000
   39  O  3  Z   -0.000000   0.000000  -0.340162  -0.975188   1.071469
   40  O  3 XX    0.000000   0.000000   0.059579  -0.108857   0.130427
   41  O  3 YY    0.000000   0.000000   0.059579  -0.108857   0.130427
   42  O  3 ZZ    0.000000   0.000000  -0.223785   0.022533   0.252601
   43  O  3 XY    0.000000   0.000000   0.000000   0.000000   0.000000
   44  O  3 XZ   -0.077322   0.004050   0.000000   0.000000   0.000000
   45  O  3 YZ    0.004050   0.077322   0.000000   0.000000   0.000000

                     21
                    1.1470
                     A   
    1  C  1  S    0.000000
    2  C  1  S    0.000000
    3  C  1  X    0.000000
    4  C  1  Y    0.000000
    5  C  1  Z    0.000000
    6  C  1  S    0.000000
    7  C  1  X   -0.000000
    8  C  1  Y   -0.000000
    9  C  1  Z    0.000000
   10  C  1 XX    0.000000
   11  C  1 YY    0.000000
   12  C  1 ZZ    0.000000
   13  C  1 XY    0.000000
   14  C  1 XZ   -0.120929
   15  C  1 YZ   -0.159847
   16  O  2  S    0.000000
   17  O  2  S    0.000000
   18  O  2  X   -0.384398
   19  O  2  Y   -0.508109
   20  O  2  Z    0.000000
   21  O  2  S   -0.000000
   22  O  2  X    0.493420
   23  O  2  Y    0.652218
   24  O  2  Z    0.000000
   25  O  2 XX    0.000000
   26  O  2 YY    0.000000
   27  O  2 ZZ    0.000000
   28  O  2 XY    0.000000
   29  O  2 XZ    0.010726
   30  O  2 YZ    0.014178
   31  O  3  S    0.000000
   32  O  3  S   -0.000000
   33  O  3  X    0.384398
   34  O  3  Y    0.508109
   35  O  3  Z    0.000000
   36  O  3  S    0.000000
   37  O  3  X   -0.493420
   38  O  3  Y   -0.652218
   39  O  3  Z    0.000000
   40  O  3 XX   -0.000000
   41  O  3 YY   -0.000000
   42  O  3 ZZ   -0.000000
   43  O  3 XY    0.000000
   44  O  3 XZ    0.010726
   45  O  3 YZ    0.014178

     ----------------------------------------------------------------
     PROPERTY VALUES FOR THE UHF   SELF-CONSISTENT FIELD WAVEFUNCTION
     ----------------------------------------------------------------

          -----------------
          ENERGY COMPONENTS
          -----------------

         WAVEFUNCTION NORMALIZATION =       1.0000000000

                ONE ELECTRON ENERGY =    -374.0498452954
                TWO ELECTRON ENERGY =     127.1682849947
           NUCLEAR REPULSION ENERGY =      59.2473840970
                                      ------------------
                       TOTAL ENERGY =    -187.6341762037

 ELECTRON-ELECTRON POTENTIAL ENERGY =     127.1682849947
  NUCLEUS-ELECTRON POTENTIAL ENERGY =    -561.1595689162
   NUCLEUS-NUCLEUS POTENTIAL ENERGY =      59.2473840970
                                      ------------------
             TOTAL POTENTIAL ENERGY =    -374.7438998244
               TOTAL KINETIC ENERGY =     187.1097236208
                 VIRIAL RATIO (V/T) =       2.0028029146

  ...... PI ENERGY ANALYSIS ......

 ENERGY ANALYSIS:
            FOCK ENERGY=   -119.7132838759
          BARE H ENERGY=   -374.0498452954
     ELECTRONIC ENERGY =   -246.8815645856
         KINETIC ENERGY=    187.1097236208
          N-N REPULSION=     59.2473840970
           TOTAL ENERGY=   -187.6341804886
        SIGMA PART(1+2)=   -201.8627240574
               (K,V1,2)=    170.3808404073   -459.4291823853     87.1856179207
           PI PART(1+2)=    -45.0188405283
               (K,V1,2)=     16.7288832135   -101.7303865308     39.9826627890
  SIGMA SKELETON, ERROR=   -142.6153399603     -0.0000000000
             MIXED PART=-2.12278E-20 1.61673E-21-2.02575E-20-2.58697E-21
 ...... END OF PI ENERGY ANALYSIS ......

          ---------------------------------------
          MULLIKEN AND LOWDIN POPULATION ANALYSES
          ---------------------------------------

     ATOMIC MULLIKEN POPULATION IN EACH MOLECULAR ORBITAL
        ALPHA ORBITALS

                      1          2          3          4          5

                  1.000000   1.000000   1.000000   1.000000   1.000000

    1            -0.000165  -0.000536   1.001388   0.259834   0.258151
    2             0.500083   0.500268  -0.000694   0.370083   0.370925
    3             0.500082   0.500269  -0.000694   0.370083   0.370925

                      6          7          8          9         10

                  1.000000   1.000000   1.000000   1.000000   1.000000

    1             0.154535   0.152801   0.330003   0.330003   0.033868
    2             0.422733   0.423599   0.334998   0.334998   0.483066
    3             0.422733   0.423599   0.334998   0.334998   0.483066

                     11

                  1.000000

    1             0.033868
    2             0.483066
    3             0.483066

     ATOMIC MULLIKEN POPULATION IN EACH MOLECULAR ORBITAL
         BETA ORBITALS

                      1          2          3          4          5

                  1.000000   1.000000   1.000000   1.000000   1.000000

    1            -0.000165  -0.000536   1.001388   0.259834   0.258151
    2             0.500083   0.500268  -0.000694   0.370083   0.370925
    3             0.500082   0.500269  -0.000694   0.370083   0.370925

                      6          7          8          9         10

                  1.000000   1.000000   1.000000   1.000000   1.000000

    1             0.154535   0.152801   0.330003   0.330003   0.033868
    2             0.422733   0.423599   0.334998   0.334998   0.483066
    3             0.422733   0.423599   0.334998   0.334998   0.483066

                     11

                  1.000000

    1             0.033868
    2             0.483066
    3             0.483066

     ATOMIC SPIN POPULATION (ALPHA MINUS BETA)
       ATOM         MULL.POP.                    LOW.POP.
    1 C            -0.000000                    -0.000000
    2 O             0.000000                     0.000000
    3 O             0.000000                     0.000000


          ********* ALL ELECTRONS ********

               ----- POPULATIONS IN EACH AO -----
                             MULLIKEN      LOWDIN
              1  C  1  S      1.99722     1.96315
              2  C  1  S      0.72201     0.35945
              3  C  1  X      0.48225     0.41772
              4  C  1  Y      0.48225     0.41772
              5  C  1  Z      0.83380     0.70506
              6  C  1  S      0.09871     0.20160
              7  C  1  X      0.17776     0.27852
              8  C  1  Y      0.17776     0.27852
              9  C  1  Z     -0.01222     0.26252
             10  C  1 XX     -0.03506     0.08035
             11  C  1 YY     -0.03506     0.08035
             12  C  1 ZZ      0.08261     0.32239
             13  C  1 XY      0.00000     0.00000
             14  C  1 XZ      0.06774     0.14033
             15  C  1 YZ      0.06774     0.14033
             16  O  2  S      1.99560     1.97733
             17  O  2  S      0.91842     0.70862
             18  O  2  X      0.97072     0.91681
             19  O  2  Y      0.97072     0.91681
             20  O  2  Z      0.90838     0.83825
             21  O  2  S      0.90863     0.44808
             22  O  2  X      0.65110     0.64869
             23  O  2  Y      0.65110     0.64869
             24  O  2  Z      0.41729     0.50834
             25  O  2 XX      0.00351     0.16661
             26  O  2 YY      0.00351     0.16661
             27  O  2 ZZ      0.01865     0.19872
             28  O  2 XY      0.00000     0.00000
             29  O  2 XZ      0.01430     0.01621
             30  O  2 YZ      0.01430     0.01621
             31  O  3  S      1.99560     1.97733
             32  O  3  S      0.91842     0.70862
             33  O  3  X      0.97072     0.91681
             34  O  3  Y      0.97072     0.91681
             35  O  3  Z      0.90838     0.83825
             36  O  3  S      0.90863     0.44808
             37  O  3  X      0.65110     0.64869
             38  O  3  Y      0.65110     0.64869
             39  O  3  Z      0.41729     0.50834
             40  O  3 XX      0.00351     0.16661
             41  O  3 YY      0.00351     0.16661
             42  O  3 ZZ      0.01865     0.19872
             43  O  3 XY      0.00000     0.00000
             44  O  3 XZ      0.01430     0.01621
             45  O  3 YZ      0.01430     0.01621

          ----- MULLIKEN ATOMIC OVERLAP POPULATIONS -----
          (OFF-DIAGONAL ELEMENTS NEED TO BE MULTIPLIED BY 2)

             1           2           3

    1    3.8456540
    2    0.6309245   7.8411997
    3    0.6309245  -0.0258756   7.8411997

          TOTAL MULLIKEN AND LOWDIN ATOMIC POPULATIONS
       ATOM         MULL.POP.    CHARGE          LOW.POP.     CHARGE
    1 C             5.107503    0.892497         5.648020    0.351980
    2 O             8.446249   -0.446249         8.175990   -0.175990
    3 O             8.446249   -0.446249         8.175990   -0.175990

          -------------------------------
          BOND ORDER AND VALENCE ANALYSIS     BOND ORDER THRESHOLD=0.050
          -------------------------------

                   BOND                       BOND                       BOND
  ATOM PAIR DIST  ORDER      ATOM PAIR DIST  ORDER      ATOM PAIR DIST  ORDER
    1   2  1.143  1.957        1   3  1.143  1.957        2   3  2.287  0.174

                       TOTAL       BONDED        FREE
      ATOM            VALENCE     VALENCE     VALENCE
    1 C                 3.914       3.914      -0.000
    2 O                 2.131       2.131      -0.000
    3 O                 2.131       2.131       0.000

          -----------------------------------------
          ATOMIC SPIN DENSITY AT THE NUCLEUS (A.U.)
          -----------------------------------------
                            SPIN DENS    ALPHA DENS     BETA DENS
    1  C            6.0    -0.0000000      59.27120      59.27120
    2  O            8.0     0.0000000     145.42483     145.42483
    3  O            8.0     0.0000000     145.42483     145.42483

          ---------------------
          ELECTROSTATIC MOMENTS
          ---------------------

 POINT   1           X           Y           Z (BOHR)    CHARGE
                -0.000000   -0.000000   -0.000000       -0.00 (A.U.)
         DX          DY          DZ         /D/  (DEBYE)
    -0.000000   -0.000000    0.000000    0.000000
 ...... END OF PROPERTY EVALUATION ......
 STEP CPU TIME =     0.00 TOTAL CPU TIME =          0.3 (      0.0 MIN)
 TOTAL WALL CLOCK TIME=          0.3 SECONDS, CPU UTILIZATION IS    99.66%
  $VIB   
          IVIB=   0 IATOM=   0 ICOORD=   0 E=     -187.6341762037
  0.000000000E+00 0.000000000E+00 0.000000000E+00 0.000000000E+00 0.000000000E+00
 -1.256701133E-05 0.000000000E+00 0.000000000E+00 1.256698148E-05
 -7.577879319E-11-1.504155404E-10 2.347843377E-12
 ......END OF GEOMETRY SEARCH......
 STEP CPU TIME =     0.00 TOTAL CPU TIME =          0.3 (      0.0 MIN)
 TOTAL WALL CLOCK TIME=          0.3 SECONDS, CPU UTILIZATION IS    99.66%
               993566  WORDS OF DYNAMIC MEMORY USED
 EXECUTION OF GAMESS TERMINATED NORMALLY 19:56:08 20-OCT-2025    
----- accounting info -----
Files used on the parent node Macbooks-MacBook-Pro.local were:
-rw-r--r--  1 macbookpro  staff      289 Oct 20 19:56 /Users/macbookpro/local/gamess/scr/co2_q0m1_uhf_631g_star.F05
-rw-r--r--  1 macbookpro  staff  1800160 Oct 20 19:56 /Users/macbookpro/local/gamess/scr/co2_q0m1_uhf_631g_star.F08
-rw-r--r--  1 macbookpro  staff  2094080 Oct 20 19:56 /Users/macbookpro/local/gamess/scr/co2_q0m1_uhf_631g_star.F10
-rw-r--r--  1 macbookpro  staff   203826 Oct 20 19:56 /Users/macbookpro/local/gamess/scr/co2_q0m1_uhf_631g_star.dat
Mon Oct 20 19:56:08 +07 2025
0.380u 0.058s 0:00.44 97.7%	0+0k 0+0io 46pf+0w
