1 : hocl_q0m1_uhf_631g_star.inp
----- GAMESS execution script 'rungms' -----
This job is running on host Macbooks-MacBook-Pro.local
under operating system Darwin at Mon Oct 20 19:56:12 +07 2025
Available scratch disk space (Kbyte units) at beginning of the job is
Filesystem   1024-blocks      Used Available Capacity iused      ifree %iused  Mounted on
/dev/disk3s5   482797652 122177444 339915768    27% 1896440 3399157680    0%   /System/Volumes/Data
GAMESS temporary binary files will be written to /Users/macbookpro/local/gamess/scr
GAMESS supplementary output files will be written to /Users/macbookpro/local/gamess/scr
Copying input file /Users/macbookpro/sq2_data/hocl_q0m1_uhf_631g_star.inp to your run's scratch directory...
          *******************************************************
          *                                                     *
          *          GAMESS VERSION = 30 JUN 2023 (R1)          *
          *                                                     *
          *              doi.org/10.1063/5.0005188              *
          *                                                     *
          **************** 64 BIT LINUX VERSION *****************

  GAMESS HAS BEEN MADE POSSIBLE WITH IMPORTANT CONTRIBUTIONS FROM
  THE FOLLOWING INDIVIDUALS (IN ALPHABETICAL ORDER):

     IVANA ADAMOVIC, CHRISTINE AIKENS, TOMOKO AKAMA,
     MELISA ALKAN, YURI ALEXEEV, YURIKO AOKI, POOJA ARORA,
     TOSHIO ASADA, ANDREY ASADCHEV, KIM K. BALDRIDGE,
     PRADIPTA BANDYOPADHYAY, TAYLOR A. BARNES, MARIA BARYSZ,
     ROB BELL, JONATHAN BENTZ, COLLEEN BERTONI,
     JERRY A. BOATZ, BRETT BODE, KURT BRORSEN, KURT R. BRORSEN,
     LAIMUTIS BYTAUTAS, CALEB CARLIN, LAURA CARRINGTON,
     GALINA CHABAN, BENOIT CHAMPAGNE, WEI CHEN, MAHITO CHIBA,
     DAN CHIPMAN, CHEOL HO CHOI, TANNER CULPITT,
     DIPAYAN DATTA, PAUL DAY, ALBERT DEFUSCO,
     NUWAN DESILVA, J. EMILIANO DEUSTUA,
     TIM DUDLEY, MICHEL DUPUIS, STEVEN T. ELBERT,
     DMITRI FEDOROV, KATHERINE FERRERAS, MICHAEL FILATOV,
     ALEX FINDLATER,GRAHAM FLETCHER, MARK FREITAG,
     CHRISTIAN FRIEDL, DAVID GARMER, 
     IGOR S. GERASIMOV, KURT GLAESEMANN,
     MARK S. GORDON, JEFFREY R. GOUR, FENG LONG GU,
     EMILIE B. GUIDEZ, ANASTASIA GUNINA, SHARON HAMMES-SCHIFFER,
     MASATAKE HARUTA, KIMIHIKO HIRAO, YASUHIRO IKABATA,
     TZVETELIN IORDANOV, STEPHAN IRLE, KAZUYA ISHIMURA,
     JOE IVANIC, FRANK JENSEN, JAN H. JENSEN, VISVALDAS KAIRYS,
     MUNEAKI KAMIYA, MICHIO KATOUDA, NAOAKI KAWAKAMI, DAN KEMP,
     BERNARD KIRTMAN, KAZUO KITAURA, MARIUSZ KLOBUKOWSKI,
     MASATO KOBAYASHI, KONSTANTIN KOMAROV, PRAKASHAN KORAMBATH,
     JACEK KORCHOWIEC, SHIRO KOSEKI, KAROL KOWALSKI,
     JIMMY KROMANN, STANISLAW A. KUCHARSKI, HENRY KURTZ,
     SAROM SOK LEANG, SEUNGHOON LEE, HUI LI, SHUHUA LI, WEI LI,
     JESSE J. LUTZ, ALEKSANDR O. LYKHIN,
     ILIAS MAGOULAS, MARCIN MAKOWSKI,
     JOANI MATO, NIKITA MATSUNAGA, BENEDETTA MENNUCCI,
     GRANT MERRILL, NORIYUKI MINEZAWA, VLADIMIR MIRONOV,
     EISAKU MIYOSHI, JOHN A. MONTGOMERY JR., HIROTOSHI MORI,
     JONATHAN MULLIN, MONIKA MUSIAL, SHIGERU NAGASE,
     TAKESHI NAGATA, HIROMI NAKAI, TAKAHITO NAKAJIMA,
     YUYA NAKAJIMA, HARUYUKI NAKANO, HIROYA NAKATA, SEAN NEDD,
     HEATHER NETZLOFF, KIET A. NGUYEN, YOSHIO NISHIMOTO,
     BOSILJKA NJEGIC, RYAN OLSON, MIKE PAK, ROBERTO PEVERATI,
     BUU PHAM, PIOTR PIECUCH, ANNA POMOGAEVA, DAVID POOLE,
     SPENCER PRUITT, OLIVIER QUINET, LUKE ROSKOP,
     KLAUS RUEDENBERG, ANDREW SAND, TOSAPORN SATTASATHUCHANA,
     NOZOMI SAWADA, MICHAEL W. SCHMIDT, PATRICK E. SCHNEIDER,
     JUNJI SEINO, PRACHI SHARMA, JUN SHEN, JIM SHOEMAKER,
     YINAN SHU, DEJUN SI, JONATHAN SKONE, LYUDMILA SLIPCHENKO,
     TONY SMITH, JIE SONG, MARK SPACKMAN, CASPER STEINMANN,
     WALT STEVENS, PEIFENG SU, SHUJUN SU, CHET SWALINA,
     CHINAMI TAKASHIMA, TETSUYA TAKETSUGU, ZHEN TAO,
     NANDUN THELLAMUREGE, SEIKEN TOKURA, JACOPO TOMASI,
     TSUGUKI TOUMA, TAKAO TSUNEDA, HIROAKI UMEDA,
     JORGE LUIS GALVEZ VALLEJO, YALI WANG, SIMON WEBB,
     AARON WEST, THERESA L. WINDUS, MARTA WLOCH,
     PENG XU, KIYOSHI YAGI, SUSUMU YANAGISAWA, YANG YANG,
     SOOHAENG YOO, TAKESHI YOSHIKAWA, FEDERICO ZAHARIEV,
     TOBY ZENG

  WHO ARE SUPPORTED BY THEIR INSTITUTION/UNIVERSITY/COMPANY/GROUP
  (IN ALPHABETICAL ORDER):

     EP ANALYTICS,
     FACULTES UNIVERSITAIRES NOTRE-DAME DE LA PAIX,
     INSTITUTE FOR MOLECULAR SCIENCE, IOWA STATE UNIVERSITY,
     JACKSON STATE UNIVERSITY, JOHANNES KEPLER UNIVERSITY LINZ,
     KYUNGPOOK NATIONAL UNIVERSITY
     KYUSHU UNIVERSITY, MICHIGAN STATE UNIVERSITY,
     MIE UNIVERSITY, THE MOLECULAR SCIENCES SOFTWARE INSTITUTE,
     MOSCOW STATE UNIVERSITY,
     N. COPERNICUS UNIVERSITY, NAGOYA UNIVERSITY,
     NANJING UNIVERSITY, NAT. INST. OF ADVANCED INDUSTRIAL
     SCIENCE AND TECHNOLOGY, NATIONAL INST. OF STANDARDS AND
     TECHNOLOGY, NESMEYANOV INSTITUTE OF ORGANOELEMENT COMPOUNDS
     OF RUSSIAN ACADEMY OF SCIENCES, OSAKA PREFECTURE UNIVERSITY,
     PENNSYLVANIA STATE UNIVERSITY, TOKYO INSTITUTE OF TECHNOLOGY,
     UNIVERSITY OF AARHUS, UNIVERSITY OF ALBERTA,
     UNIVERSITY OF CALIFORNIA AT SANTA BARBARA,
     UNIVERSITY OF COPENHAGEN, UNIVERSITY OF IOWA,
     UNIVERSITY OF MEMPHIS, UNIVERSITY OF MINNESOTA,
     UNIVERSITY OF NEBRASKA, UNIVERSITY OF NEW ENGLAND,
     UNIVERSITY OF NOTRE DAME, UNIVERSITY OF PISA,
     UNIVERSITY OF SILESIA, UNIVERSITY OF TOKYO,
     UNIVERSITY OF ZURICH, WASEDA UNIVERSITY,
     YALE UNIVERSITY

  GAMESS SOFTWARE MANAGEMENT TEAM FOR THIS RELEASE:
     MARK S. GORDON (TEAM LEAD),
     BRETT BODE (SENIOR ADVISOR),
     GIUSEPPE BARCA,
     COLLEEN BERTONI,
     KRISTOPHER KEIPERT (ADVISOR),
     SAROM S. LEANG (DEVELOPMENT LEAD),
     BUU PHAM,
     JACKSON HAYES (WEBSITE ADMINISTRATOR),
     PENG XU

 EXECUTION OF GAMESS BEGUN 19:56:12 20-OCT-2025    

            ECHO OF THE FIRST FEW INPUT CARDS -
 INPUT CARD> $CONTRL SCFTYP=UHF ICHARG=0 MULT=1                                             
 INPUT CARD> RUNTYP=OPTIMIZE                                                                
 INPUT CARD> $END                                                                           
 INPUT CARD> $BASIS GBASIS=N31 NGAUSS=6 NDFUNC=1 $END                                       
 INPUT CARD> $DATA                                                                          
 INPUT CARD> ... this is comment ...                                                        
 INPUT CARD> C1                                                                             
 INPUT CARD> O     8   0.03958103   1.10994970  -0.00000000                                 
 INPUT CARD> H     1  -0.91510013   1.32411377   0.00000000                                 
 INPUT CARD> CL   17   0.03936011  -0.60742447   0.00000000                                 
 INPUT CARD> $END                                                                           
 INPUT CARD>                                                                                
      1000000 WORDS OF MEMORY AVAILABLE

     BASIS OPTIONS
     -------------
     GBASIS=N31          IGAUSS=       6      POLAR=POPN31  
     NDFUNC=       1     NFFUNC=       0     DIFFSP=       F
     NPFUNC=       0      DIFFS=       F     BASNAM=        


     RUN TITLE
     ---------
  ... this is comment ...                                                        

 THE POINT GROUP OF THE MOLECULE IS C1      
 THE ORDER OF THE PRINCIPAL AXIS IS     0

 ATOM      ATOMIC                      COORDINATES (BOHR)
           CHARGE         X                   Y                   Z
 O           8.0     0.0747973010        2.0975007932       -0.0000000000
 H           1.0    -1.7292884970        2.5022122019        0.0000000000
 CL         17.0     0.0743798227       -1.1478658065        0.0000000000

          INTERNUCLEAR DISTANCES (ANGS.)
          ------------------------------

                1 O          2 H          3 CL    

   1 O       0.0000000    0.9784081 *  1.7173742 *
   2 H       0.9784081 *  0.0000000    2.1544917 *
   3 CL      1.7173742 *  2.1544917 *  0.0000000  

  * ... LESS THAN  3.000


     ATOMIC BASIS SET
     ----------------
 THE CONTRACTED PRIMITIVE FUNCTIONS HAVE BEEN UNNORMALIZED
 THE CONTRACTED BASIS FUNCTIONS ARE NOW NORMALIZED TO UNITY

  SHELL TYPE  PRIMITIVE        EXPONENT          CONTRACTION COEFFICIENT(S)

 O         

      1   S       1          5484.6716600    0.001831074430
      1   S       2           825.2349460    0.013950172200
      1   S       3           188.0469580    0.068445078098
      1   S       4            52.9645000    0.232714335992
      1   S       5            16.8975704    0.470192897984
      1   S       6             5.7996353    0.358520852987

      2   L       7            15.5396162   -0.110777549525    0.070874268231
      2   L       8             3.5999336   -0.148026262701    0.339752839147
      2   L       9             1.0137618    1.130767015354    0.727158577316

      3   L      10             0.2700058    1.000000000000    1.000000000000

      4   D      11             0.8000000    1.000000000000

 H         

      5   S      12            18.7311370    0.033494604338
      5   S      13             2.8253944    0.234726953484
      5   S      14             0.6401217    0.813757326146

      6   S      15             0.1612778    1.000000000000

 CL        

      7   S      16         25180.1000000    0.001832959848
      7   S      17          3780.3500000    0.014034198835
      7   S      18           860.4740000    0.069097394263
      7   S      19           242.1450000    0.237451980285
      7   S      20            77.3349000    0.483033959896
      7   S      21            26.2470000    0.339855971783

      8   L      22           491.7650000   -0.002297391417    0.003989400879
      8   L      23           116.9840000   -0.030713718938    0.030317706682
      8   L      24            37.4153000   -0.112528069386    0.129880028625
      8   L      25            13.7834000    0.045016327757    0.327951072278
      8   L      26             5.4521500    0.589353363399    0.453527099954
      8   L      27             2.2258800    0.465206286849    0.252154055573

      9   L      28             3.1864900   -0.251831288046   -0.014299314719
      9   L      29             1.1442700    0.061589315012    0.323572333073
      9   L      30             0.4203770    1.060185422549    0.743507765337

     10   L      31             0.1426570    1.000000000000    1.000000000000

     11   D      32             0.7500000    1.000000000000

 TOTAL NUMBER OF BASIS SET SHELLS             =   11
 NUMBER OF CARTESIAN GAUSSIAN BASIS FUNCTIONS =   36
 NUMBER OF ELECTRONS                          =   26
 CHARGE OF MOLECULE                           =    0
 SPIN MULTIPLICITY                            =    1
 NUMBER OF OCCUPIED ORBITALS (ALPHA)          =   13
 NUMBER OF OCCUPIED ORBITALS (BETA )          =   13
 TOTAL NUMBER OF ATOMS                        =    3
 THE NUCLEAR REPULSION ENERGY IS       50.4082090212

     $CONTRL OPTIONS
     ---------------
 SCFTYP=UHF          RUNTYP=OPTIMIZE     EXETYP=RUN     
 MPLEVL=       0     CITYP =NONE         CCTYP =NONE         VBTYP =NONE    
 DFTTYP=NONE         TDDFT =NONE    
 MULT  =       1     ICHARG=       0     NZVAR =       0     COORD =UNIQUE  
 PP    =NONE         RELWFN=NONE         LOCAL =NONE         NUMGRD=       F
 ISPHER=      -1     NOSYM =       0     MAXIT =      30     UNITS =ANGS    
 PLTORB=       F     MOLPLT=       F     AIMPAC=       F     FRIEND=        
 NPRINT=       7     IREST =       0     GEOM  =INPUT   
 NORMF =       0     NORMP =       0     ITOL  =      20     ICUT  =       9
 INTTYP=BEST         GRDTYP=BEST         QMTTOL= 1.0E-06

     $SYSTEM OPTIONS
     ---------------
  REPLICATED MEMORY=     1000000 WORDS (ON EVERY NODE).
 DISTRIBUTED MEMDDI=           0 MILLION WORDS IN AGGREGATE,
 MEMDDI DISTRIBUTED OVER   1 PROCESSORS IS           0 WORDS/PROCESSOR.
 TOTAL MEMORY REQUESTED ON EACH PROCESSOR=     1000000 WORDS.
 TIMLIM=      525600.00 MINUTES, OR     365.0 DAYS.
 PARALL= F  BALTYP=  DLB     KDIAG=    0  COREFL= F
 MXSEQ2=     300 MXSEQ3=     150  mem10=         0  mem22=         0

          ----------------
          PROPERTIES INPUT
          ----------------

     MOMENTS            FIELD           POTENTIAL          DENSITY
 IEMOM =       1   IEFLD =       0   IEPOT =       0   IEDEN =       0
 WHERE =COMASS     WHERE =NUCLEI     WHERE =NUCLEI     WHERE =NUCLEI  
 OUTPUT=BOTH       OUTPUT=BOTH       OUTPUT=BOTH       OUTPUT=BOTH    
 IEMINT=       0   IEFINT=       0                     IEDINT=       0
                                                       MORB  =       0
          EXTRAPOLATION IN EFFECT
          SOSCF IN EFFECT
          DIIS or SOSCF will be reset if energy rises
 ORBITAL PRINTING OPTION: NPREO=     1    36     2     1

     -------------------------------
     INTEGRAL TRANSFORMATION OPTIONS
     -------------------------------
     NWORD  =            0
     CUTTRF = 1.0E-09     MPTRAN =       0
     DIRTRF =       F     AOINTS =DUP     

          ----------------------
          INTEGRAL INPUT OPTIONS
          ----------------------
 NOPK  =       1 NORDER=       0 SCHWRZ=       F

     ------------------------------------------
     THE POINT GROUP IS C1 , NAXIS= 0, ORDER= 1
     ------------------------------------------

     DIMENSIONS OF THE SYMMETRY SUBSPACES ARE
 A   =   36

 ..... DONE SETTING UP THE RUN .....
 STEP CPU TIME =     0.00 TOTAL CPU TIME =          0.0 (      0.0 MIN)
 TOTAL WALL CLOCK TIME=          0.0 SECONDS, CPU UTILIZATION IS    96.76%


          -----------------------------
          STATIONARY POINT LOCATION RUN
          -----------------------------

 OBTAINING INITIAL HESSIAN, HESS=GUESS   
 CARTESIAN COORDINATE OPTIMIZATION USING BADGER'S RULE FORCE CONSTANT GUESS

          PARAMETERS CONTROLLING GEOMETRY SEARCH ARE
          METHOD =QA                  UPHESS =BFGS    
          NNEG   =         0          NFRZ   =         0
          NSTEP  =        50          IFOLOW =         1
          HESS   =GUESS               RESTAR =         F
          IHREP  =         0          HSSEND =         F
          NPRT   =         0          NPUN   =         0
          OPTTOL = 1.000E-04          RMIN   = 1.500E-03
          RMAX   = 1.000E-01          RLIM   = 7.000E-02
          DXMAX  = 3.000E-01          PURIFY =         F
          MOVIE  =         F          TRUPD  =         T
          TRMAX  = 5.000E-01          TRMIN  = 5.000E-02
          ITBMAT =         5          STPT   =         F
          STSTEP = 1.000E-02          PROJCT=          T

 BEGINNING GEOMETRY SEARCH POINT NSERCH=   0 ...

 COORDINATES OF ALL ATOMS ARE (ANGS)
   ATOM   CHARGE       X              Y              Z
 ------------------------------------------------------------
 O           8.0   0.0395810300   1.1099497000  -0.0000000000
 H           1.0  -0.9151001300   1.3241137700   0.0000000000
 CL         17.0   0.0393601100  -0.6074244700   0.0000000000

          ********************
          1 ELECTRON INTEGRALS
          ********************
 ...... END OF ONE-ELECTRON INTEGRALS ......
 STEP CPU TIME =     0.00 TOTAL CPU TIME =          0.0 (      0.0 MIN)
 TOTAL WALL CLOCK TIME=          0.0 SECONDS, CPU UTILIZATION IS    97.15%

          -------------
          GUESS OPTIONS
          -------------
          GUESS =HUCKEL            NORB  =       0          NORDER=       0
          MIX   =       F          PRTMO =       F          PUNMO =       F
          TOLZ  = 1.0E-08          TOLE  = 1.0E-05
          SYMDEN=       F          PURIFY=       F

 INITIAL GUESS ORBITALS GENERATED BY HUCKEL   ROUTINE.
 HUCKEL GUESS REQUIRES     12870 WORDS.

 SYMMETRIES FOR INITIAL GUESS ORBITALS FOLLOW.  ALPHA SET(S).
    13 ORBITALS ARE OCCUPIED (    6 CORE ORBITALS).
     7=A        8=A        9=A       10=A       11=A       12=A       13=A   
    14=A       15=A       16=A       17=A       18=A       19=A       20=A   
    21=A       22=A       23=A   

 SYMMETRIES FOR INITIAL GUESS ORBITALS FOLLOW.   BETA SET(S).
    13 ORBITALS ARE OCCUPIED (    6 CORE ORBITALS).
     7=A        8=A        9=A       10=A       11=A       12=A       13=A   
    14=A       15=A       16=A       17=A       18=A       19=A       20=A   
    21=A       22=A       23=A   
 ...... END OF INITIAL ORBITAL SELECTION ......
 STEP CPU TIME =     0.00 TOTAL CPU TIME =          0.0 (      0.0 MIN)
 TOTAL WALL CLOCK TIME=          0.0 SECONDS, CPU UTILIZATION IS    97.63%

                    ----------------------
                    AO INTEGRAL TECHNOLOGY
                    ----------------------
     S,P,L SHELL ROTATED AXIS INTEGRALS, REPROGRAMMED BY
        KAZUYA ISHIMURA (IMS) AND JOSE SIERRA (SYNSTAR).
     S,P,D,L SHELL ROTATED AXIS INTEGRALS PROGRAMMED BY
        KAZUYA ISHIMURA (INSTITUTE FOR MOLECULAR SCIENCE).
     S,P,D,F,G SHELL TO TOTAL QUARTET ANGULAR MOMENTUM SUM 5,
        ERIC PROGRAM BY GRAHAM FLETCHER (ELORET AND NASA ADVANCED
        SUPERCOMPUTING DIVISION, AMES RESEARCH CENTER).
     S,P,D,F,G,L SHELL GENERAL RYS QUADRATURE PROGRAMMED BY
        MICHEL DUPUIS (PACIFIC NORTHWEST NATIONAL LABORATORY).

          --------------------
          2 ELECTRON INTEGRALS
          --------------------

 THE -PK- OPTION IS OFF, THE INTEGRALS ARE NOT IN SUPERMATRIX FORM.
 STORING   15000 INTEGRALS/RECORD ON DISK, USING 12 BYTES/INTEGRAL.
 TWO ELECTRON INTEGRAL EVALUATION REQUIRES   90462 WORDS OF MEMORY.
 II,JST,KST,LST =  1  1  1  1 NREC =         1 INTLOC =    1
 II,JST,KST,LST =  2  1  1  1 NREC =         1 INTLOC =    2
 II,JST,KST,LST =  3  1  1  1 NREC =         1 INTLOC =   34
 II,JST,KST,LST =  4  1  1  1 NREC =         1 INTLOC =  214
 II,JST,KST,LST =  5  1  1  1 NREC =         1 INTLOC = 1189
 II,JST,KST,LST =  6  1  1  1 NREC =         1 INTLOC = 2365
 II,JST,KST,LST =  7  1  1  1 NREC =         1 INTLOC = 3802
 II,JST,KST,LST =  8  1  1  1 NREC =         1 INTLOC = 5042
 II,JST,KST,LST =  9  1  1  1 NREC =         1 INTLOC =13398
 II,JST,KST,LST = 10  1  1  1 NREC =         2 INTLOC =13586
 II,JST,KST,LST = 11  1  1  1 NREC =         4 INTLOC = 6897
 TOTAL NUMBER OF NONZERO TWO-ELECTRON INTEGRALS =              104333
          7 INTEGRAL RECORDS WERE STORED ON DISK FILE  8.
  ...... END OF TWO-ELECTRON INTEGRALS .....
 STEP CPU TIME =     0.01 TOTAL CPU TIME =          0.0 (      0.0 MIN)
 TOTAL WALL CLOCK TIME=          0.0 SECONDS, CPU UTILIZATION IS    99.23%

          ---------------------------
                  UHF SCF CALCULATION
          ---------------------------

     NUCLEAR ENERGY =        50.4082090212
     MAXIT = 30     NPUNCH=  2     MULT=  1
     EXTRAP=T  DAMP=F  SHIFT=F  RSTRCT=F  DIIS=F  SOSCF=T
     DENSITY MATRIX CONV=  1.00E-05
     SOSCF WILL OPTIMIZE     299 ALPHA AND     299 BETA ROTATION ANGLES.
     SOGTOL= 2.500E-01
     MEMORY REQUIRED FOR UHF/ROHF ITERS=     47722 WORDS.

 ITER EX      TOTAL ENERGY        E CHANGE  DENSITY CHANGE    ORB. GRAD 
   1  0     -534.3912696355  -534.3912696355   0.293061567   0.000000000
          ---------------START SECOND ORDER SCF---------------
   2  1     -534.8192799835    -0.4280103480   0.058189926   0.035799795
   3  2     -534.8380462185    -0.0187662351   0.023813934   0.015485312
   4  3     -534.8399161649    -0.0018699463   0.006846799   0.003581759
   5  4     -534.8400467053    -0.0001305404   0.002987809   0.001976087
   6  5     -534.8400891704    -0.0000424652   0.001563285   0.000636758
   7  6     -534.8400944382    -0.0000052678   0.000506785   0.000160066
   8  7     -534.8400948302    -0.0000003920   0.000277481   0.000073294
   9  8     -534.8400949121    -0.0000000819   0.000046662   0.000023378
  10  9     -534.8400949179    -0.0000000058   0.000013122   0.000005482
  11 10     -534.8400949185    -0.0000000005   0.000002885   0.000001064
  12 11     -534.8400949185    -0.0000000000   0.000000932   0.000000412

          -----------------
          DENSITY CONVERGED
          -----------------
     TIME TO FORM FOCK OPERATORS=       0.0 SECONDS (       0.0 SEC/ITER)
     TIME TO SOLVE SCF EQUATIONS=       0.0 SECONDS (       0.0 SEC/ITER)

 FINAL UHF ENERGY IS     -534.8400949185 AFTER  12 ITERATIONS

          --------------------
          SPIN SZ   =    0.000
          S-SQUARED =    0.000
          --------------------

  ----- ALPHA SET ----- 

          ------------
          EIGENVECTORS
          ------------

                      1          2          3          4          5
                 -104.8785   -20.6538   -10.6064    -8.0763    -8.0716
                     A          A          A          A          A   
    1  O  1  S   -0.000000   0.994758  -0.000013   0.000025  -0.000058
    2  O  1  S    0.000035   0.020926   0.000452   0.000889  -0.000199
    3  O  1  X    0.000011  -0.001112  -0.000080  -0.000086   0.000082
    4  O  1  Y   -0.000043  -0.000866  -0.000185  -0.000133  -0.000026
    5  O  1  Z   -0.000000  -0.000000   0.000000  -0.000000  -0.000000
    6  O  1  S    0.000017   0.003577  -0.000570  -0.001754   0.001024
    7  O  1  X   -0.000068   0.000467   0.000357   0.000543  -0.000321
    8  O  1  Y   -0.000013   0.000439   0.000691   0.002137   0.000219
    9  O  1  Z   -0.000000  -0.000000   0.000000  -0.000000  -0.000000
   10  O  1 XX    0.000029  -0.003882   0.000228   0.000498  -0.000075
   11  O  1 YY   -0.000035  -0.004176  -0.000677  -0.001227  -0.000241
   12  O  1 ZZ   -0.000001  -0.003646   0.000319   0.000719  -0.000210
   13  O  1 XY   -0.000007   0.000039   0.000030   0.000052   0.000245
   14  O  1 XZ   -0.000000  -0.000000   0.000000  -0.000000  -0.000000
   15  O  1 YZ   -0.000000  -0.000000   0.000000  -0.000000  -0.000000
   16  H  2  S   -0.000038   0.000356   0.000053   0.000316  -0.000151
   17  H  2  S   -0.000086  -0.000165   0.000641   0.000708  -0.000817
   18  CL 3  S    0.996121  -0.000000  -0.286780   0.001886  -0.000078
   19  CL 3  S    0.014632  -0.000004   1.030743  -0.007074   0.000276
   20  CL 3  X   -0.000005  -0.000004  -0.000349  -0.022221   0.993500
   21  CL 3  Y    0.000064  -0.000094   0.005853   0.992351   0.022256
   22  CL 3  Z   -0.000000  -0.000000   0.000000  -0.000000  -0.000000
   23  CL 3  S   -0.017697  -0.000218   0.024846   0.002753  -0.000223
   24  CL 3  X    0.000007   0.000018  -0.000107  -0.000547   0.019746
   25  CL 3  Y   -0.000035   0.000343   0.001298   0.023615   0.000408
   26  CL 3  Z   -0.000000  -0.000000   0.000000  -0.000000  -0.000000
   27  CL 3  S    0.001434  -0.000052  -0.005369   0.000722   0.000207
   28  CL 3  X   -0.000004  -0.000114   0.000068   0.000148  -0.004330
   29  CL 3  Y    0.000034  -0.000055  -0.000365  -0.004804   0.000044
   30  CL 3  Z   -0.000000  -0.000000   0.000000  -0.000000  -0.000000
   31  CL 3 XX    0.006261   0.000057  -0.001615  -0.001296  -0.000031
   32  CL 3 YY    0.006275   0.000415  -0.000670   0.000608   0.000075
   33  CL 3 ZZ    0.006259   0.000053  -0.001628  -0.001308   0.000025
   34  CL 3 XY    0.000003  -0.000043  -0.000033  -0.000081   0.000427
   35  CL 3 XZ   -0.000000  -0.000000   0.000000  -0.000000  -0.000000
   36  CL 3 YZ   -0.000000  -0.000000   0.000000  -0.000000  -0.000000

                      6          7          8          9         10
                   -8.0714    -1.4006    -1.0605    -0.7110    -0.6050
                     A          A          A          A          A   
    1  O  1  S   -0.000000  -0.199592   0.077773  -0.050714  -0.000000
    2  O  1  S   -0.000000   0.454336  -0.181764   0.113552  -0.000000
    3  O  1  X   -0.000000  -0.068859   0.067515   0.479753  -0.000000
    4  O  1  Y   -0.000000  -0.042046  -0.131449  -0.129430  -0.000000
    5  O  1  Z    0.000010  -0.000000  -0.000000  -0.000000   0.552310
    6  O  1  S   -0.000000   0.435564  -0.213338   0.216435  -0.000000
    7  O  1  X   -0.000000  -0.044064   0.035392   0.305628  -0.000000
    8  O  1  Y   -0.000000  -0.038449  -0.067790  -0.093543  -0.000000
    9  O  1  Z    0.000179  -0.000000  -0.000000  -0.000000   0.397234
   10  O  1 XX   -0.000000   0.022136  -0.018307  -0.048491  -0.000000
   11  O  1 YY   -0.000000   0.020001   0.016303   0.024711  -0.000000
   12  O  1 ZZ   -0.000000  -0.002974  -0.001947   0.006217  -0.000000
   13  O  1 XY   -0.000000  -0.002314   0.007449  -0.004646  -0.000000
   14  O  1 XZ   -0.000003  -0.000000  -0.000000  -0.000000  -0.022687
   15  O  1 YZ    0.000273  -0.000000  -0.000000  -0.000000  -0.019740
   16  H  2  S   -0.000000   0.118522  -0.088943  -0.239557  -0.000000
   17  H  2  S   -0.000000  -0.006777  -0.015170  -0.108466  -0.000000
   18  CL 3  S   -0.000000   0.026253   0.076079  -0.012303  -0.000000
   19  CL 3  S   -0.000000  -0.118926  -0.345835   0.058062  -0.000000
   20  CL 3  X   -0.000000   0.002528  -0.000561  -0.064972  -0.000000
   21  CL 3  Y   -0.000000  -0.044329   0.008035  -0.075874  -0.000000
   22  CL 3  Z    0.993780  -0.000000  -0.000000  -0.000000  -0.137994
   23  CL 3  S   -0.000000   0.222085   0.700558  -0.119531  -0.000000
   24  CL 3  X   -0.000000  -0.005319   0.001362   0.162939  -0.000000
   25  CL 3  Y   -0.000000   0.094765  -0.020878   0.187251  -0.000000
   26  CL 3  Z    0.019639  -0.000000  -0.000000  -0.000000   0.352877
   27  CL 3  S   -0.000000   0.053277   0.301899  -0.106970  -0.000000
   28  CL 3  X   -0.000000  -0.002019  -0.004443   0.063661  -0.000000
   29  CL 3  Y   -0.000000  -0.005206  -0.009338   0.037521  -0.000000
   30  CL 3  Z   -0.004253  -0.000000  -0.000000  -0.000000   0.162369
   31  CL 3 XX   -0.000000  -0.008229   0.001561  -0.012380  -0.000000
   32  CL 3 YY   -0.000000   0.032908   0.001869   0.032975  -0.000000
   33  CL 3 ZZ   -0.000000  -0.009499   0.000352  -0.008786  -0.000000
   34  CL 3 XY   -0.000000  -0.002322   0.000075   0.021263  -0.000000
   35  CL 3 XZ   -0.000037  -0.000000  -0.000000  -0.000000  -0.001940
   36  CL 3 YZ    0.000400  -0.000000  -0.000000  -0.000000   0.029525

                     11         12         13         14         15
                   -0.5924    -0.4682    -0.4447     0.1001     0.2300
                     A          A          A          A          A   
    1  O  1  S    0.041597   0.024761   0.000000  -0.078807   0.049003
    2  O  1  S   -0.117659  -0.055579   0.000000   0.102237  -0.009085
    3  O  1  X   -0.179644  -0.200482   0.000000  -0.086240   0.252916
    4  O  1  Y   -0.409948  -0.073737   0.000000  -0.359859  -0.220142
    5  O  1  Z    0.000000   0.000000  -0.365623  -0.000000  -0.000000
    6  O  1  S   -0.120587  -0.118861   0.000000   0.819759  -0.800916
    7  O  1  X   -0.136466  -0.151330   0.000000  -0.162217   0.599728
    8  O  1  Y   -0.328739  -0.066944   0.000000  -0.517228  -0.364669
    9  O  1  Z    0.000000   0.000000  -0.302156  -0.000000  -0.000000
   10  O  1 XX   -0.003795   0.017107   0.000000  -0.021459   0.020995
   11  O  1 YY    0.029871   0.003786   0.000000  -0.023501   0.037069
   12  O  1 ZZ   -0.016430  -0.004010   0.000000  -0.031640   0.044281
   13  O  1 XY    0.025986  -0.007041   0.000000   0.016199   0.001783
   14  O  1 XZ    0.000000   0.000000   0.014613  -0.000000  -0.000000
   15  O  1 YZ    0.000000   0.000000  -0.001622  -0.000000  -0.000000
   16  H  2  S    0.006312   0.093509   0.000000  -0.042210   0.098703
   17  H  2  S   -0.001562   0.073339   0.000000  -0.390295   1.581300
   18  CL 3  S   -0.014047   0.000399   0.000000  -0.017563  -0.016727
   19  CL 3  S    0.066317   0.000604   0.000000   0.085071   0.060226
   20  CL 3  X    0.064494  -0.271022   0.000000   0.000277  -0.014224
   21  CL 3  Y   -0.175214  -0.026284   0.000000   0.178967   0.060001
   22  CL 3  Z    0.000000   0.000000  -0.251691  -0.000000  -0.000000
   23  CL 3  S   -0.144668   0.009448   0.000000  -0.172205  -0.225912
   24  CL 3  X   -0.164740   0.712682   0.000000  -0.000581   0.046343
   25  CL 3  Y    0.436896   0.068256   0.000000  -0.465101  -0.153817
   26  CL 3  Z    0.000000   0.000000   0.665865  -0.000000  -0.000000
   27  CL 3  S   -0.165447  -0.035538   0.000000  -0.320932  -0.077936
   28  CL 3  X   -0.083668   0.387764   0.000000  -0.002468  -0.004559
   29  CL 3  Y    0.126862   0.012354   0.000000  -0.736528  -0.348210
   30  CL 3  Z    0.000000   0.000000   0.364089  -0.000000  -0.000000
   31  CL 3 XX   -0.017192  -0.002944   0.000000  -0.046593  -0.013513
   32  CL 3 YY    0.059540   0.008500   0.000000   0.091704   0.029961
   33  CL 3 ZZ   -0.019284   0.000289   0.000000  -0.040372  -0.036785
   34  CL 3 XY   -0.014474  -0.006175   0.000000  -0.002272   0.012682
   35  CL 3 XZ    0.000000   0.000000  -0.002195  -0.000000  -0.000000
   36  CL 3 YZ    0.000000   0.000000  -0.018417  -0.000000  -0.000000

                     16         17         18         19         20
                    0.5357     0.5986     0.6227     0.6261     0.9434
                     A          A          A          A          A   
    1  O  1  S    0.006783   0.005190  -0.000000   0.004980   0.018756
    2  O  1  S    0.009794   0.148609  -0.000000  -0.096784  -0.197699
    3  O  1  X   -0.091291  -0.031485  -0.000000   0.018666  -0.096844
    4  O  1  Y    0.000712  -0.205160  -0.000000  -0.019865   0.011225
    5  O  1  Z    0.000000  -0.000000  -0.064069  -0.000000  -0.000000
    6  O  1  S   -0.248409  -0.677735  -0.000000   0.129543   0.267177
    7  O  1  X   -0.114675  -0.030669  -0.000000  -0.087718   0.487770
    8  O  1  Y    0.288334   0.197039  -0.000000  -0.055565  -0.160190
    9  O  1  Z    0.000000  -0.000000  -0.119459  -0.000000  -0.000000
   10  O  1 XX    0.024144   0.084347  -0.000000  -0.025106   0.045857
   11  O  1 YY   -0.065141  -0.062099  -0.000000  -0.010279  -0.084846
   12  O  1 ZZ    0.031039   0.083500  -0.000000  -0.039422  -0.112250
   13  O  1 XY    0.010433   0.014273  -0.000000   0.017854  -0.158330
   14  O  1 XZ    0.000000  -0.000000   0.000313  -0.000000  -0.000000
   15  O  1 YZ    0.000000  -0.000000   0.026321  -0.000000  -0.000000
   16  H  2  S   -0.020307   0.069610  -0.000000  -0.003932   0.809601
   17  H  2  S   -0.440193  -0.272969  -0.000000   0.277329  -0.397373
   18  CL 3  S   -0.066724  -0.001047  -0.000000   0.003677   0.003012
   19  CL 3  S    0.062636  -0.021307  -0.000000   0.004631  -0.007608
   20  CL 3  X    0.014604   0.036923  -0.000000   0.288750   0.024943
   21  CL 3  Y   -0.037987   0.290418  -0.000000  -0.033579  -0.028130
   22  CL 3  Z    0.000000  -0.000000   0.291328  -0.000000  -0.000000
   23  CL 3  S   -1.389648  -0.080821  -0.000000   0.096065   0.060537
   24  CL 3  X   -0.055768  -0.142529  -0.000000  -1.140379  -0.078998
   25  CL 3  Y    0.114598  -1.120770  -0.000000   0.136913   0.094806
   26  CL 3  Z    0.000000  -0.000000  -1.148266  -0.000000  -0.000000
   27  CL 3  S    2.068378   0.375317  -0.000000  -0.227912  -0.090341
   28  CL 3  X    0.043612   0.133506  -0.000000   1.292972  -0.084125
   29  CL 3  Y    0.307171   1.508893  -0.000000  -0.269896  -0.146228
   30  CL 3  Z    0.000000  -0.000000   1.280515  -0.000000  -0.000000
   31  CL 3 XX   -0.079389   0.026982  -0.000000   0.003051   0.031613
   32  CL 3 YY   -0.238837  -0.085554  -0.000000   0.043941  -0.049877
   33  CL 3 ZZ   -0.065742   0.035574  -0.000000  -0.011289   0.000380
   34  CL 3 XY   -0.003325   0.007856  -0.000000  -0.062198   0.640450
   35  CL 3 XZ    0.000000  -0.000000   0.001146  -0.000000  -0.000000
   36  CL 3 YZ    0.000000  -0.000000  -0.055212  -0.000000  -0.000000

                     21         22         23         24         25
                    1.0010     1.0594     1.1185     1.1197     1.1783
                     A          A          A          A          A   
    1  O  1  S    0.000000  -0.017931   0.001925   0.000000  -0.013375
    2  O  1  S    0.000000  -0.488829   0.183403   0.000000  -1.061527
    3  O  1  X    0.000000  -0.616819  -0.154400   0.000000   0.210660
    4  O  1  Y    0.000000  -0.310276   0.017464   0.000000  -0.152617
    5  O  1  Z   -0.599273  -0.000000  -0.000000  -0.005624   0.000000
    6  O  1  S    0.000000   0.880115  -0.372415   0.000000   2.097359
    7  O  1  X    0.000000   0.323761   0.125718   0.000000  -0.128486
    8  O  1  Y    0.000000   0.499448  -0.004376   0.000000   0.227876
    9  O  1  Z    0.575347  -0.000000  -0.000000   0.007830   0.000000
   10  O  1 XX    0.000000  -0.304374   0.061652   0.000000  -0.215334
   11  O  1 YY    0.000000  -0.086251   0.066882   0.000000  -0.340457
   12  O  1 ZZ    0.000000  -0.131311   0.035569   0.000000  -0.390970
   13  O  1 XY    0.000000  -0.011121   0.001101   0.000000   0.076635
   14  O  1 XZ   -0.001631  -0.000000  -0.000000   0.045177   0.000000
   15  O  1 YZ   -0.131142  -0.000000  -0.000000  -0.002363   0.000000
   16  H  2  S    0.000000  -0.553402  -0.154255   0.000000   0.558313
   17  H  2  S    0.000000   0.264052   0.217077   0.000000  -1.093790
   18  CL 3  S    0.000000  -0.000966  -0.000020   0.000000  -0.003072
   19  CL 3  S    0.000000   0.010650   0.000833   0.000000   0.000844
   20  CL 3  X    0.000000  -0.004452   0.001771   0.000000  -0.029701
   21  CL 3  Y    0.000000   0.020126  -0.000016   0.000000   0.016370
   22  CL 3  Z    0.013426  -0.000000  -0.000000  -0.000907   0.000000
   23  CL 3  S    0.000000  -0.007034  -0.001113   0.000000  -0.066623
   24  CL 3  X    0.000000   0.019614  -0.009220   0.000000   0.131238
   25  CL 3  Y    0.000000  -0.056231   0.006201   0.000000  -0.091510
   26  CL 3  Z   -0.040446  -0.000000  -0.000000   0.002831   0.000000
   27  CL 3  S    0.000000   0.000127   0.009926   0.000000   0.069633
   28  CL 3  X    0.000000  -0.060034   0.013460   0.000000  -0.238736
   29  CL 3  Y    0.000000   0.059120   0.018312   0.000000   0.034754
   30  CL 3  Z   -0.089775  -0.000000  -0.000000  -0.001553   0.000000
   31  CL 3 XX    0.000000  -0.220949   0.857975   0.000000   0.001531
   32  CL 3 YY    0.000000   0.332086  -0.014943   0.000000   0.251847
   33  CL 3 ZZ    0.000000  -0.071342  -0.831888   0.000000  -0.299375
   34  CL 3 XY    0.000000   0.254713   0.053905   0.000000  -0.454936
   35  CL 3 XZ   -0.012005  -0.000000  -0.000000   0.998134   0.000000
   36  CL 3 YZ    0.737672  -0.000000  -0.000000   0.009025   0.000000

                     26         27         28         29         30
                    1.2580     1.2879     1.4047     1.5910     2.0026
                     A          A          A          A          A   
    1  O  1  S    0.000000   0.031418  -0.004379  -0.097192   0.000000
    2  O  1  S    0.000000   0.023995   0.094150  -1.133202   0.000000
    3  O  1  X    0.000000   0.056618  -0.725564   0.166922   0.000000
    4  O  1  Y    0.000000   0.731462   0.398546   0.374641   0.000000
    5  O  1  Z   -0.739033  -0.000000   0.000000  -0.000000  -0.006273
    6  O  1  S    0.000000  -0.427234  -0.193255   3.036476   0.000000
    7  O  1  X    0.000000  -0.107904   1.315966  -0.595800   0.000000
    8  O  1  Y    0.000000  -0.587370  -0.858711  -1.007156   0.000000
    9  O  1  Z    0.967600  -0.000000   0.000000  -0.000000   0.047643
   10  O  1 XX    0.000000   0.016639   0.147969  -0.466019   0.000000
   11  O  1 YY    0.000000   0.102347  -0.136530  -0.683242   0.000000
   12  O  1 ZZ    0.000000   0.051253  -0.014968   0.003351   0.000000
   13  O  1 XY    0.000000  -0.021699   0.137687   0.052592   0.000000
   14  O  1 XZ   -0.023087  -0.000000   0.000000  -0.000000   0.996226
   15  O  1 YZ    0.185671  -0.000000   0.000000  -0.000000  -0.062802
   16  H  2  S    0.000000  -0.075370   0.189911  -0.451878   0.000000
   17  H  2  S    0.000000   0.111704   0.800808  -0.197603   0.000000
   18  CL 3  S    0.000000  -0.011377   0.008748   0.006760   0.000000
   19  CL 3  S    0.000000   0.000479   0.005284   0.029029   0.000000
   20  CL 3  X    0.000000   0.006314   0.007266  -0.007365   0.000000
   21  CL 3  Y    0.000000   0.061981  -0.014367   0.024254   0.000000
   22  CL 3  Z   -0.021358  -0.000000   0.000000  -0.000000   0.001216
   23  CL 3  S    0.000000  -0.270744   0.254247   0.284528   0.000000
   24  CL 3  X    0.000000  -0.029108  -0.021375   0.020065   0.000000
   25  CL 3  Y    0.000000  -0.324702   0.032044  -0.155615   0.000000
   26  CL 3  Z    0.099046  -0.000000   0.000000  -0.000000  -0.001640
   27  CL 3  S    0.000000   0.264914  -0.690816  -1.096768   0.000000
   28  CL 3  X    0.000000   0.067477  -0.135578   0.083606   0.000000
   29  CL 3  Y    0.000000   0.344613  -0.509472  -0.817499   0.000000
   30  CL 3  Z   -0.290758  -0.000000   0.000000  -0.000000  -0.017830
   31  CL 3 XX    0.000000  -0.379825   0.030451   0.263872   0.000000
   32  CL 3 YY    0.000000   0.649246  -0.225426  -0.506580   0.000000
   33  CL 3 ZZ    0.000000  -0.377272   0.175112   0.181668   0.000000
   34  CL 3 XY    0.000000   0.113546  -0.415025   0.228816   0.000000
   35  CL 3 XZ    0.001738  -0.000000   0.000000  -0.000000  -0.062012
   36  CL 3 YZ   -0.608650  -0.000000   0.000000  -0.000000  -0.035801

                     31         32         33         34         35
                    2.0890     2.1448     2.5485     2.7798     3.9221
                     A          A          A          A          A   
    1  O  1  S   -0.001279  -0.000000  -0.052310   0.026761  -0.473857
    2  O  1  S    0.015015  -0.000000  -0.773672  -0.027257   0.227616
    3  O  1  X    0.100494  -0.000000   0.025447  -0.077533   0.082353
    4  O  1  Y   -0.003824  -0.000000   0.246962   0.126194   0.104722
    5  O  1  Z    0.000000   0.094642  -0.000000  -0.000000  -0.000000
    6  O  1  S   -0.013571  -0.000000   1.909537  -0.265708   3.822030
    7  O  1  X   -0.191628  -0.000000  -0.426693   0.718489  -0.234029
    8  O  1  Y    0.058668  -0.000000  -0.802696  -0.557966  -0.390226
    9  O  1  Z    0.000000  -0.164944  -0.000000  -0.000000  -0.000000
   10  O  1 XX    0.266208  -0.000000   0.115538  -1.060973  -1.629059
   11  O  1 YY    0.018308  -0.000000   0.521024   0.875876  -1.407057
   12  O  1 ZZ   -0.283131  -0.000000  -1.069140   0.319814  -1.656818
   13  O  1 XY    0.932362  -0.000000  -0.257773   0.300083  -0.014196
   14  O  1 XZ    0.000000   0.067198  -0.000000  -0.000000  -0.000000
   15  O  1 YZ    0.000000   0.986878  -0.000000  -0.000000  -0.000000
   16  H  2  S   -0.032810  -0.000000  -0.675715   1.067447   0.127761
   17  H  2  S   -0.016024  -0.000000   0.006848   0.042742  -0.537521
   18  CL 3  S    0.000157  -0.000000  -0.019548  -0.018765   0.015268
   19  CL 3  S   -0.001888  -0.000000   0.112347   0.088034  -0.061545
   20  CL 3  X   -0.016676  -0.000000  -0.001181   0.004230  -0.006513
   21  CL 3  Y   -0.001513  -0.000000   0.119098   0.078922   0.002518
   22  CL 3  Z    0.000000  -0.017624  -0.000000  -0.000000  -0.000000
   23  CL 3  S    0.001472  -0.000000  -0.330364  -0.405133   0.476621
   24  CL 3  X    0.032624  -0.000000   0.007087  -0.018085   0.030515
   25  CL 3  Y    0.008352  -0.000000  -0.500761  -0.315676  -0.104997
   26  CL 3  Z    0.000000   0.035189  -0.000000  -0.000000  -0.000000
   27  CL 3  S    0.031196  -0.000000  -0.681296  -0.215416  -0.493448
   28  CL 3  X    0.132949  -0.000000   0.038326  -0.068403  -0.050401
   29  CL 3  Y    0.021006  -0.000000  -0.418867  -0.110517  -0.370812
   30  CL 3  Z    0.000000   0.133220  -0.000000  -0.000000  -0.000000
   31  CL 3 XX   -0.022413  -0.000000   0.356406   0.309810  -0.166771
   32  CL 3 YY    0.008713  -0.000000  -0.445835  -0.214995  -0.252224
   33  CL 3 ZZ    0.007803  -0.000000   0.399114   0.270722  -0.180928
   34  CL 3 XY    0.346806  -0.000000   0.021908  -0.061741   0.004797
   35  CL 3 XZ    0.000000  -0.003532  -0.000000  -0.000000  -0.000000
   36  CL 3 YZ    0.000000   0.347997  -0.000000  -0.000000  -0.000000

                     36
                    4.6832
                     A   
    1  O  1  S    0.035704
    2  O  1  S   -0.114965
    3  O  1  X   -0.002543
    4  O  1  Y    0.028603
    5  O  1  Z    0.000000
    6  O  1  S   -0.213086
    7  O  1  X    0.021941
    8  O  1  Y   -0.103621
    9  O  1  Z    0.000000
   10  O  1 XX    0.026363
   11  O  1 YY    0.326221
   12  O  1 ZZ    0.050498
   13  O  1 XY    0.004122
   14  O  1 XZ    0.000000
   15  O  1 YZ    0.000000
   16  H  2  S    0.032692
   17  H  2  S    0.001871
   18  CL 3  S    0.168037
   19  CL 3  S   -0.789627
   20  CL 3  X    0.000478
   21  CL 3  Y    0.024389
   22  CL 3  Z    0.000000
   23  CL 3  S    5.505716
   24  CL 3  X   -0.001634
   25  CL 3  Y   -0.099499
   26  CL 3  Z    0.000000
   27  CL 3  S    0.060879
   28  CL 3  X   -0.001695
   29  CL 3  Y    0.031954
   30  CL 3  Z    0.000000
   31  CL 3 XX   -2.414572
   32  CL 3 YY   -2.519760
   33  CL 3 ZZ   -2.415254
   34  CL 3 XY   -0.002758
   35  CL 3 XZ    0.000000
   36  CL 3 YZ    0.000000

  ----- BETA SET ----- 

          ------------
          EIGENVECTORS
          ------------

                      1          2          3          4          5
                 -104.8785   -20.6538   -10.6064    -8.0763    -8.0716
                     A          A          A          A          A   
    1  O  1  S   -0.000000   0.994758  -0.000013   0.000025  -0.000058
    2  O  1  S    0.000035   0.020926   0.000452   0.000889  -0.000199
    3  O  1  X    0.000011  -0.001112  -0.000080  -0.000086   0.000082
    4  O  1  Y   -0.000043  -0.000866  -0.000185  -0.000133  -0.000026
    5  O  1  Z   -0.000000  -0.000000   0.000000  -0.000000  -0.000000
    6  O  1  S    0.000017   0.003577  -0.000570  -0.001754   0.001024
    7  O  1  X   -0.000068   0.000467   0.000357   0.000543  -0.000321
    8  O  1  Y   -0.000013   0.000439   0.000691   0.002137   0.000219
    9  O  1  Z   -0.000000  -0.000000   0.000000  -0.000000  -0.000000
   10  O  1 XX    0.000029  -0.003882   0.000228   0.000498  -0.000075
   11  O  1 YY   -0.000035  -0.004176  -0.000677  -0.001227  -0.000241
   12  O  1 ZZ   -0.000001  -0.003646   0.000319   0.000719  -0.000210
   13  O  1 XY   -0.000007   0.000039   0.000030   0.000052   0.000245
   14  O  1 XZ   -0.000000  -0.000000   0.000000  -0.000000  -0.000000
   15  O  1 YZ   -0.000000  -0.000000   0.000000  -0.000000  -0.000000
   16  H  2  S   -0.000038   0.000356   0.000053   0.000316  -0.000151
   17  H  2  S   -0.000086  -0.000165   0.000641   0.000708  -0.000817
   18  CL 3  S    0.996121  -0.000000  -0.286780   0.001886  -0.000078
   19  CL 3  S    0.014632  -0.000004   1.030743  -0.007074   0.000276
   20  CL 3  X   -0.000005  -0.000004  -0.000349  -0.022221   0.993500
   21  CL 3  Y    0.000064  -0.000094   0.005853   0.992351   0.022256
   22  CL 3  Z   -0.000000  -0.000000   0.000000  -0.000000  -0.000000
   23  CL 3  S   -0.017697  -0.000218   0.024846   0.002753  -0.000223
   24  CL 3  X    0.000007   0.000018  -0.000107  -0.000547   0.019746
   25  CL 3  Y   -0.000035   0.000343   0.001298   0.023615   0.000408
   26  CL 3  Z   -0.000000  -0.000000   0.000000  -0.000000  -0.000000
   27  CL 3  S    0.001434  -0.000052  -0.005369   0.000722   0.000207
   28  CL 3  X   -0.000004  -0.000114   0.000068   0.000148  -0.004330
   29  CL 3  Y    0.000034  -0.000055  -0.000365  -0.004804   0.000044
   30  CL 3  Z   -0.000000  -0.000000   0.000000  -0.000000  -0.000000
   31  CL 3 XX    0.006261   0.000057  -0.001615  -0.001296  -0.000031
   32  CL 3 YY    0.006275   0.000415  -0.000670   0.000608   0.000075
   33  CL 3 ZZ    0.006259   0.000053  -0.001628  -0.001308   0.000025
   34  CL 3 XY    0.000003  -0.000043  -0.000033  -0.000081   0.000427
   35  CL 3 XZ   -0.000000  -0.000000   0.000000  -0.000000  -0.000000
   36  CL 3 YZ   -0.000000  -0.000000   0.000000  -0.000000  -0.000000

                      6          7          8          9         10
                   -8.0714    -1.4006    -1.0605    -0.7110    -0.6050
                     A          A          A          A          A   
    1  O  1  S   -0.000000  -0.199592   0.077773  -0.050714  -0.000000
    2  O  1  S   -0.000000   0.454336  -0.181764   0.113552  -0.000000
    3  O  1  X   -0.000000  -0.068859   0.067515   0.479753  -0.000000
    4  O  1  Y   -0.000000  -0.042046  -0.131449  -0.129430  -0.000000
    5  O  1  Z    0.000010  -0.000000  -0.000000  -0.000000   0.552310
    6  O  1  S   -0.000000   0.435564  -0.213338   0.216435  -0.000000
    7  O  1  X   -0.000000  -0.044064   0.035392   0.305628  -0.000000
    8  O  1  Y   -0.000000  -0.038449  -0.067790  -0.093543  -0.000000
    9  O  1  Z    0.000179  -0.000000  -0.000000  -0.000000   0.397234
   10  O  1 XX   -0.000000   0.022136  -0.018307  -0.048491  -0.000000
   11  O  1 YY   -0.000000   0.020001   0.016303   0.024711  -0.000000
   12  O  1 ZZ   -0.000000  -0.002974  -0.001947   0.006217  -0.000000
   13  O  1 XY   -0.000000  -0.002314   0.007449  -0.004646  -0.000000
   14  O  1 XZ   -0.000003  -0.000000  -0.000000  -0.000000  -0.022687
   15  O  1 YZ    0.000273  -0.000000  -0.000000  -0.000000  -0.019740
   16  H  2  S   -0.000000   0.118522  -0.088943  -0.239557  -0.000000
   17  H  2  S   -0.000000  -0.006777  -0.015170  -0.108466  -0.000000
   18  CL 3  S   -0.000000   0.026253   0.076079  -0.012303  -0.000000
   19  CL 3  S   -0.000000  -0.118926  -0.345835   0.058062  -0.000000
   20  CL 3  X   -0.000000   0.002528  -0.000561  -0.064972  -0.000000
   21  CL 3  Y   -0.000000  -0.044329   0.008035  -0.075874  -0.000000
   22  CL 3  Z    0.993780  -0.000000  -0.000000  -0.000000  -0.137994
   23  CL 3  S   -0.000000   0.222085   0.700558  -0.119531  -0.000000
   24  CL 3  X   -0.000000  -0.005319   0.001362   0.162939  -0.000000
   25  CL 3  Y   -0.000000   0.094765  -0.020878   0.187251  -0.000000
   26  CL 3  Z    0.019639  -0.000000  -0.000000  -0.000000   0.352877
   27  CL 3  S   -0.000000   0.053277   0.301899  -0.106970  -0.000000
   28  CL 3  X   -0.000000  -0.002019  -0.004443   0.063661  -0.000000
   29  CL 3  Y   -0.000000  -0.005206  -0.009338   0.037521  -0.000000
   30  CL 3  Z   -0.004253  -0.000000  -0.000000  -0.000000   0.162369
   31  CL 3 XX   -0.000000  -0.008229   0.001561  -0.012380  -0.000000
   32  CL 3 YY   -0.000000   0.032908   0.001869   0.032975  -0.000000
   33  CL 3 ZZ   -0.000000  -0.009499   0.000352  -0.008786  -0.000000
   34  CL 3 XY   -0.000000  -0.002322   0.000075   0.021263  -0.000000
   35  CL 3 XZ   -0.000037  -0.000000  -0.000000  -0.000000  -0.001940
   36  CL 3 YZ    0.000400  -0.000000  -0.000000  -0.000000   0.029525

                     11         12         13         14         15
                   -0.5924    -0.4682    -0.4447     0.1001     0.2300
                     A          A          A          A          A   
    1  O  1  S    0.041597   0.024761   0.000000  -0.078807   0.049003
    2  O  1  S   -0.117659  -0.055579   0.000000   0.102237  -0.009085
    3  O  1  X   -0.179644  -0.200482   0.000000  -0.086240   0.252916
    4  O  1  Y   -0.409948  -0.073737   0.000000  -0.359859  -0.220142
    5  O  1  Z    0.000000   0.000000  -0.365623  -0.000000  -0.000000
    6  O  1  S   -0.120587  -0.118861   0.000000   0.819759  -0.800916
    7  O  1  X   -0.136466  -0.151330   0.000000  -0.162217   0.599728
    8  O  1  Y   -0.328739  -0.066944   0.000000  -0.517228  -0.364669
    9  O  1  Z    0.000000   0.000000  -0.302156  -0.000000  -0.000000
   10  O  1 XX   -0.003795   0.017107   0.000000  -0.021459   0.020995
   11  O  1 YY    0.029871   0.003786   0.000000  -0.023501   0.037069
   12  O  1 ZZ   -0.016430  -0.004010   0.000000  -0.031640   0.044281
   13  O  1 XY    0.025986  -0.007041   0.000000   0.016199   0.001783
   14  O  1 XZ    0.000000   0.000000   0.014613  -0.000000  -0.000000
   15  O  1 YZ    0.000000   0.000000  -0.001622  -0.000000  -0.000000
   16  H  2  S    0.006312   0.093509   0.000000  -0.042210   0.098703
   17  H  2  S   -0.001562   0.073339   0.000000  -0.390295   1.581300
   18  CL 3  S   -0.014047   0.000399   0.000000  -0.017563  -0.016727
   19  CL 3  S    0.066317   0.000604   0.000000   0.085071   0.060226
   20  CL 3  X    0.064494  -0.271022   0.000000   0.000277  -0.014224
   21  CL 3  Y   -0.175214  -0.026284   0.000000   0.178967   0.060001
   22  CL 3  Z    0.000000   0.000000  -0.251691  -0.000000  -0.000000
   23  CL 3  S   -0.144668   0.009448   0.000000  -0.172205  -0.225912
   24  CL 3  X   -0.164740   0.712682   0.000000  -0.000581   0.046343
   25  CL 3  Y    0.436896   0.068256   0.000000  -0.465101  -0.153817
   26  CL 3  Z    0.000000   0.000000   0.665865  -0.000000  -0.000000
   27  CL 3  S   -0.165447  -0.035538   0.000000  -0.320932  -0.077936
   28  CL 3  X   -0.083668   0.387764   0.000000  -0.002468  -0.004559
   29  CL 3  Y    0.126862   0.012354   0.000000  -0.736528  -0.348210
   30  CL 3  Z    0.000000   0.000000   0.364089  -0.000000  -0.000000
   31  CL 3 XX   -0.017192  -0.002944   0.000000  -0.046593  -0.013513
   32  CL 3 YY    0.059540   0.008500   0.000000   0.091704   0.029961
   33  CL 3 ZZ   -0.019284   0.000289   0.000000  -0.040372  -0.036785
   34  CL 3 XY   -0.014474  -0.006175   0.000000  -0.002272   0.012682
   35  CL 3 XZ    0.000000   0.000000  -0.002195  -0.000000  -0.000000
   36  CL 3 YZ    0.000000   0.000000  -0.018417  -0.000000  -0.000000

                     16         17         18         19         20
                    0.5357     0.5986     0.6227     0.6261     0.9434
                     A          A          A          A          A   
    1  O  1  S    0.006783   0.005190  -0.000000   0.004980   0.018756
    2  O  1  S    0.009794   0.148609  -0.000000  -0.096784  -0.197699
    3  O  1  X   -0.091291  -0.031485  -0.000000   0.018666  -0.096844
    4  O  1  Y    0.000712  -0.205160  -0.000000  -0.019865   0.011225
    5  O  1  Z    0.000000  -0.000000  -0.064069  -0.000000  -0.000000
    6  O  1  S   -0.248409  -0.677735  -0.000000   0.129543   0.267177
    7  O  1  X   -0.114675  -0.030669  -0.000000  -0.087718   0.487770
    8  O  1  Y    0.288334   0.197039  -0.000000  -0.055565  -0.160190
    9  O  1  Z    0.000000  -0.000000  -0.119459  -0.000000  -0.000000
   10  O  1 XX    0.024144   0.084347  -0.000000  -0.025106   0.045857
   11  O  1 YY   -0.065141  -0.062099  -0.000000  -0.010279  -0.084846
   12  O  1 ZZ    0.031039   0.083500  -0.000000  -0.039422  -0.112250
   13  O  1 XY    0.010433   0.014273  -0.000000   0.017854  -0.158330
   14  O  1 XZ    0.000000  -0.000000   0.000313  -0.000000  -0.000000
   15  O  1 YZ    0.000000  -0.000000   0.026321  -0.000000  -0.000000
   16  H  2  S   -0.020307   0.069610  -0.000000  -0.003932   0.809601
   17  H  2  S   -0.440193  -0.272969  -0.000000   0.277329  -0.397373
   18  CL 3  S   -0.066724  -0.001047  -0.000000   0.003677   0.003012
   19  CL 3  S    0.062636  -0.021307  -0.000000   0.004631  -0.007608
   20  CL 3  X    0.014604   0.036923  -0.000000   0.288750   0.024943
   21  CL 3  Y   -0.037987   0.290418  -0.000000  -0.033579  -0.028130
   22  CL 3  Z    0.000000  -0.000000   0.291328  -0.000000  -0.000000
   23  CL 3  S   -1.389648  -0.080821  -0.000000   0.096065   0.060537
   24  CL 3  X   -0.055768  -0.142529  -0.000000  -1.140379  -0.078998
   25  CL 3  Y    0.114598  -1.120770  -0.000000   0.136913   0.094806
   26  CL 3  Z    0.000000  -0.000000  -1.148266  -0.000000  -0.000000
   27  CL 3  S    2.068378   0.375317  -0.000000  -0.227912  -0.090341
   28  CL 3  X    0.043612   0.133506  -0.000000   1.292972  -0.084125
   29  CL 3  Y    0.307171   1.508893  -0.000000  -0.269896  -0.146228
   30  CL 3  Z    0.000000  -0.000000   1.280515  -0.000000  -0.000000
   31  CL 3 XX   -0.079389   0.026982  -0.000000   0.003051   0.031613
   32  CL 3 YY   -0.238837  -0.085554  -0.000000   0.043941  -0.049877
   33  CL 3 ZZ   -0.065742   0.035574  -0.000000  -0.011289   0.000380
   34  CL 3 XY   -0.003325   0.007856  -0.000000  -0.062198   0.640450
   35  CL 3 XZ    0.000000  -0.000000   0.001146  -0.000000  -0.000000
   36  CL 3 YZ    0.000000  -0.000000  -0.055212  -0.000000  -0.000000

                     21         22         23         24         25
                    1.0010     1.0594     1.1185     1.1197     1.1783
                     A          A          A          A          A   
    1  O  1  S    0.000000  -0.017931   0.001925   0.000000  -0.013375
    2  O  1  S    0.000000  -0.488829   0.183403   0.000000  -1.061527
    3  O  1  X    0.000000  -0.616819  -0.154400   0.000000   0.210660
    4  O  1  Y    0.000000  -0.310276   0.017464   0.000000  -0.152617
    5  O  1  Z   -0.599273  -0.000000  -0.000000  -0.005624   0.000000
    6  O  1  S    0.000000   0.880115  -0.372415   0.000000   2.097359
    7  O  1  X    0.000000   0.323761   0.125718   0.000000  -0.128486
    8  O  1  Y    0.000000   0.499448  -0.004376   0.000000   0.227876
    9  O  1  Z    0.575347  -0.000000  -0.000000   0.007830   0.000000
   10  O  1 XX    0.000000  -0.304374   0.061652   0.000000  -0.215334
   11  O  1 YY    0.000000  -0.086251   0.066882   0.000000  -0.340457
   12  O  1 ZZ    0.000000  -0.131311   0.035569   0.000000  -0.390970
   13  O  1 XY    0.000000  -0.011121   0.001101   0.000000   0.076635
   14  O  1 XZ   -0.001631  -0.000000  -0.000000   0.045177   0.000000
   15  O  1 YZ   -0.131142  -0.000000  -0.000000  -0.002363   0.000000
   16  H  2  S    0.000000  -0.553402  -0.154255   0.000000   0.558313
   17  H  2  S    0.000000   0.264052   0.217077   0.000000  -1.093790
   18  CL 3  S    0.000000  -0.000966  -0.000020   0.000000  -0.003072
   19  CL 3  S    0.000000   0.010650   0.000833   0.000000   0.000844
   20  CL 3  X    0.000000  -0.004452   0.001771   0.000000  -0.029701
   21  CL 3  Y    0.000000   0.020126  -0.000016   0.000000   0.016370
   22  CL 3  Z    0.013426  -0.000000  -0.000000  -0.000907   0.000000
   23  CL 3  S    0.000000  -0.007034  -0.001113   0.000000  -0.066623
   24  CL 3  X    0.000000   0.019614  -0.009220   0.000000   0.131238
   25  CL 3  Y    0.000000  -0.056231   0.006201   0.000000  -0.091510
   26  CL 3  Z   -0.040446  -0.000000  -0.000000   0.002831   0.000000
   27  CL 3  S    0.000000   0.000127   0.009926   0.000000   0.069633
   28  CL 3  X    0.000000  -0.060034   0.013460   0.000000  -0.238736
   29  CL 3  Y    0.000000   0.059120   0.018312   0.000000   0.034754
   30  CL 3  Z   -0.089775  -0.000000  -0.000000  -0.001553   0.000000
   31  CL 3 XX    0.000000  -0.220949   0.857975   0.000000   0.001531
   32  CL 3 YY    0.000000   0.332086  -0.014943   0.000000   0.251847
   33  CL 3 ZZ    0.000000  -0.071342  -0.831888   0.000000  -0.299375
   34  CL 3 XY    0.000000   0.254713   0.053905   0.000000  -0.454936
   35  CL 3 XZ   -0.012005  -0.000000  -0.000000   0.998134   0.000000
   36  CL 3 YZ    0.737672  -0.000000  -0.000000   0.009025   0.000000

                     26         27         28         29         30
                    1.2580     1.2879     1.4047     1.5910     2.0026
                     A          A          A          A          A   
    1  O  1  S    0.000000   0.031418  -0.004379  -0.097192   0.000000
    2  O  1  S    0.000000   0.023995   0.094150  -1.133202   0.000000
    3  O  1  X    0.000000   0.056618  -0.725564   0.166922   0.000000
    4  O  1  Y    0.000000   0.731462   0.398546   0.374641   0.000000
    5  O  1  Z   -0.739033  -0.000000   0.000000  -0.000000  -0.006273
    6  O  1  S    0.000000  -0.427234  -0.193255   3.036476   0.000000
    7  O  1  X    0.000000  -0.107904   1.315966  -0.595800   0.000000
    8  O  1  Y    0.000000  -0.587370  -0.858711  -1.007156   0.000000
    9  O  1  Z    0.967600  -0.000000   0.000000  -0.000000   0.047643
   10  O  1 XX    0.000000   0.016639   0.147969  -0.466019   0.000000
   11  O  1 YY    0.000000   0.102347  -0.136530  -0.683242   0.000000
   12  O  1 ZZ    0.000000   0.051253  -0.014968   0.003351   0.000000
   13  O  1 XY    0.000000  -0.021699   0.137687   0.052592   0.000000
   14  O  1 XZ   -0.023087  -0.000000   0.000000  -0.000000   0.996226
   15  O  1 YZ    0.185671  -0.000000   0.000000  -0.000000  -0.062802
   16  H  2  S    0.000000  -0.075370   0.189911  -0.451878   0.000000
   17  H  2  S    0.000000   0.111704   0.800808  -0.197603   0.000000
   18  CL 3  S    0.000000  -0.011377   0.008748   0.006760   0.000000
   19  CL 3  S    0.000000   0.000479   0.005284   0.029029   0.000000
   20  CL 3  X    0.000000   0.006314   0.007266  -0.007365   0.000000
   21  CL 3  Y    0.000000   0.061981  -0.014367   0.024254   0.000000
   22  CL 3  Z   -0.021358  -0.000000   0.000000  -0.000000   0.001216
   23  CL 3  S    0.000000  -0.270744   0.254247   0.284528   0.000000
   24  CL 3  X    0.000000  -0.029108  -0.021375   0.020065   0.000000
   25  CL 3  Y    0.000000  -0.324702   0.032044  -0.155615   0.000000
   26  CL 3  Z    0.099046  -0.000000   0.000000  -0.000000  -0.001640
   27  CL 3  S    0.000000   0.264914  -0.690816  -1.096768   0.000000
   28  CL 3  X    0.000000   0.067477  -0.135578   0.083606   0.000000
   29  CL 3  Y    0.000000   0.344613  -0.509472  -0.817499   0.000000
   30  CL 3  Z   -0.290758  -0.000000   0.000000  -0.000000  -0.017830
   31  CL 3 XX    0.000000  -0.379825   0.030451   0.263872   0.000000
   32  CL 3 YY    0.000000   0.649246  -0.225426  -0.506580   0.000000
   33  CL 3 ZZ    0.000000  -0.377272   0.175112   0.181668   0.000000
   34  CL 3 XY    0.000000   0.113546  -0.415025   0.228816   0.000000
   35  CL 3 XZ    0.001738  -0.000000   0.000000  -0.000000  -0.062012
   36  CL 3 YZ   -0.608650  -0.000000   0.000000  -0.000000  -0.035801

                     31         32         33         34         35
                    2.0890     2.1448     2.5485     2.7798     3.9221
                     A          A          A          A          A   
    1  O  1  S   -0.001279  -0.000000  -0.052310   0.026761  -0.473857
    2  O  1  S    0.015015  -0.000000  -0.773672  -0.027257   0.227616
    3  O  1  X    0.100494  -0.000000   0.025447  -0.077533   0.082353
    4  O  1  Y   -0.003824  -0.000000   0.246962   0.126194   0.104722
    5  O  1  Z    0.000000   0.094642  -0.000000  -0.000000  -0.000000
    6  O  1  S   -0.013571  -0.000000   1.909537  -0.265708   3.822030
    7  O  1  X   -0.191628  -0.000000  -0.426693   0.718489  -0.234029
    8  O  1  Y    0.058668  -0.000000  -0.802696  -0.557966  -0.390226
    9  O  1  Z    0.000000  -0.164944  -0.000000  -0.000000  -0.000000
   10  O  1 XX    0.266208  -0.000000   0.115538  -1.060973  -1.629059
   11  O  1 YY    0.018308  -0.000000   0.521024   0.875876  -1.407057
   12  O  1 ZZ   -0.283131  -0.000000  -1.069140   0.319814  -1.656818
   13  O  1 XY    0.932362  -0.000000  -0.257773   0.300083  -0.014196
   14  O  1 XZ    0.000000   0.067198  -0.000000  -0.000000  -0.000000
   15  O  1 YZ    0.000000   0.986878  -0.000000  -0.000000  -0.000000
   16  H  2  S   -0.032810  -0.000000  -0.675715   1.067447   0.127761
   17  H  2  S   -0.016024  -0.000000   0.006848   0.042742  -0.537521
   18  CL 3  S    0.000157  -0.000000  -0.019548  -0.018765   0.015268
   19  CL 3  S   -0.001888  -0.000000   0.112347   0.088034  -0.061545
   20  CL 3  X   -0.016676  -0.000000  -0.001181   0.004230  -0.006513
   21  CL 3  Y   -0.001513  -0.000000   0.119098   0.078922   0.002518
   22  CL 3  Z    0.000000  -0.017624  -0.000000  -0.000000  -0.000000
   23  CL 3  S    0.001472  -0.000000  -0.330364  -0.405133   0.476621
   24  CL 3  X    0.032624  -0.000000   0.007087  -0.018085   0.030515
   25  CL 3  Y    0.008352  -0.000000  -0.500761  -0.315676  -0.104997
   26  CL 3  Z    0.000000   0.035189  -0.000000  -0.000000  -0.000000
   27  CL 3  S    0.031196  -0.000000  -0.681296  -0.215416  -0.493448
   28  CL 3  X    0.132949  -0.000000   0.038326  -0.068403  -0.050401
   29  CL 3  Y    0.021006  -0.000000  -0.418867  -0.110517  -0.370812
   30  CL 3  Z    0.000000   0.133220  -0.000000  -0.000000  -0.000000
   31  CL 3 XX   -0.022413  -0.000000   0.356406   0.309810  -0.166771
   32  CL 3 YY    0.008713  -0.000000  -0.445835  -0.214995  -0.252224
   33  CL 3 ZZ    0.007803  -0.000000   0.399114   0.270722  -0.180928
   34  CL 3 XY    0.346806  -0.000000   0.021908  -0.061741   0.004797
   35  CL 3 XZ    0.000000  -0.003532  -0.000000  -0.000000  -0.000000
   36  CL 3 YZ    0.000000   0.347997  -0.000000  -0.000000  -0.000000

                     36
                    4.6832
                     A   
    1  O  1  S    0.035704
    2  O  1  S   -0.114965
    3  O  1  X   -0.002543
    4  O  1  Y    0.028603
    5  O  1  Z    0.000000
    6  O  1  S   -0.213086
    7  O  1  X    0.021941
    8  O  1  Y   -0.103621
    9  O  1  Z    0.000000
   10  O  1 XX    0.026363
   11  O  1 YY    0.326221
   12  O  1 ZZ    0.050498
   13  O  1 XY    0.004122
   14  O  1 XZ    0.000000
   15  O  1 YZ    0.000000
   16  H  2  S    0.032692
   17  H  2  S    0.001871
   18  CL 3  S    0.168037
   19  CL 3  S   -0.789627
   20  CL 3  X    0.000478
   21  CL 3  Y    0.024389
   22  CL 3  Z    0.000000
   23  CL 3  S    5.505716
   24  CL 3  X   -0.001634
   25  CL 3  Y   -0.099499
   26  CL 3  Z    0.000000
   27  CL 3  S    0.060879
   28  CL 3  X   -0.001695
   29  CL 3  Y    0.031954
   30  CL 3  Z    0.000000
   31  CL 3 XX   -2.414572
   32  CL 3 YY   -2.519760
   33  CL 3 ZZ   -2.415254
   34  CL 3 XY   -0.002758
   35  CL 3 XZ    0.000000
   36  CL 3 YZ    0.000000
 ...... END OF UHF CALCULATION ......
 STEP CPU TIME =     0.01 TOTAL CPU TIME =          0.0 (      0.0 MIN)
 TOTAL WALL CLOCK TIME=          0.0 SECONDS, CPU UTILIZATION IS    98.22%

     ----------------------------------------------------------------
     PROPERTY VALUES FOR THE UHF   SELF-CONSISTENT FIELD WAVEFUNCTION
     ----------------------------------------------------------------

          -----------------
          ENERGY COMPONENTS
          -----------------

         WAVEFUNCTION NORMALIZATION =       1.0000000000

                ONE ELECTRON ENERGY =    -839.2158946036
                TWO ELECTRON ENERGY =     253.9675906638
           NUCLEAR REPULSION ENERGY =      50.4082090212
                                      ------------------
                       TOTAL ENERGY =    -534.8400949185

 ELECTRON-ELECTRON POTENTIAL ENERGY =     253.9675906638
  NUCLEUS-ELECTRON POTENTIAL ENERGY =   -1373.4922106133
   NUCLEUS-NUCLEUS POTENTIAL ENERGY =      50.4082090212
                                      ------------------
             TOTAL POTENTIAL ENERGY =   -1069.1164109282
               TOTAL KINETIC ENERGY =     534.2763160097
                 VIRIAL RATIO (V/T) =       2.0010552197

  ...... PI ENERGY ANALYSIS ......

 ENERGY ANALYSIS:
            FOCK ENERGY=   -331.2807138916
          BARE H ENERGY=   -839.2158946036
     ELECTRONIC ENERGY =   -585.2483042476
         KINETIC ENERGY=    534.2763160097
          N-N REPULSION=     50.4082090212
           TOTAL ENERGY=   -534.8400952263
        SIGMA PART(1+2)=   -515.1837878989
               (K,V1,2)=    483.4954158382  -1200.8244847649    202.1452810278
           PI PART(1+2)=    -70.0645163487
               (K,V1,2)=     50.7809001715   -172.6677258484     51.8223093282
  SIGMA SKELETON, ERROR=   -464.7755788776      0.0000000000
             MIXED PART= 0.00000E+00 0.00000E+00 0.00000E+00 0.00000E+00
 ...... END OF PI ENERGY ANALYSIS ......

          ---------------------------------------
          MULLIKEN AND LOWDIN POPULATION ANALYSES
          ---------------------------------------

     ATOMIC MULLIKEN POPULATION IN EACH MOLECULAR ORBITAL
        ALPHA ORBITALS

                      1          2          3          4          5

                  1.000000   1.000000   1.000000   1.000000   1.000000

    1             0.000000   0.999999  -0.000091  -0.000162  -0.000004
    2            -0.000000   0.000001   0.000015   0.000008   0.000004
    3             1.000000   0.000000   1.000076   1.000154   1.000000

                      6          7          8          9         10

                  1.000000   1.000000   1.000000   1.000000   1.000000

    1             0.000001   0.816304   0.169598   0.681143   0.738178
    2             0.000000   0.049857   0.025287   0.167658   0.000000
    3             0.999999   0.133839   0.805115   0.151199   0.261822

                     11         12         13

                  1.000000   1.000000   1.000000

    1             0.578555   0.096061   0.257913
    2             0.000099   0.017052   0.000000
    3             0.421347   0.886887   0.742087

     ATOMIC MULLIKEN POPULATION IN EACH MOLECULAR ORBITAL
         BETA ORBITALS

                      1          2          3          4          5

                  1.000000   1.000000   1.000000   1.000000   1.000000

    1             0.000000   0.999999  -0.000091  -0.000162  -0.000004
    2            -0.000000   0.000001   0.000015   0.000008   0.000004
    3             1.000000   0.000000   1.000076   1.000154   1.000000

                      6          7          8          9         10

                  1.000000   1.000000   1.000000   1.000000   1.000000

    1             0.000001   0.816304   0.169598   0.681143   0.738178
    2             0.000000   0.049857   0.025287   0.167658   0.000000
    3             0.999999   0.133839   0.805115   0.151199   0.261822

                     11         12         13

                  1.000000   1.000000   1.000000

    1             0.578555   0.096061   0.257913
    2             0.000099   0.017052   0.000000
    3             0.421347   0.886887   0.742087

     ATOMIC SPIN POPULATION (ALPHA MINUS BETA)
       ATOM         MULL.POP.                    LOW.POP.
    1 O             0.000000                     0.000000
    2 H             0.000000                     0.000000
    3 CL            0.000000                     0.000000


          ********* ALL ELECTRONS ********

               ----- POPULATIONS IN EACH AO -----
                             MULLIKEN      LOWDIN
              1  O  1  S      1.99560     1.97795
              2  O  1  S      0.93366     0.74802
              3  O  1  X      0.92515     0.87531
              4  O  1  Y      0.65077     0.61826
              5  O  1  Z      1.20088     1.17976
              6  O  1  S      0.94805     0.49393
              7  O  1  X      0.60936     0.65268
              8  O  1  Y      0.54431     0.60099
              9  O  1  Z      0.78686     0.80941
             10  O  1 XX      0.03751     0.20718
             11  O  1 YY      0.03132     0.20029
             12  O  1 ZZ      0.00256     0.17684
             13  O  1 XY      0.00451     0.00952
             14  O  1 XZ      0.00146     0.00146
             15  O  1 YZ      0.00299     0.00680
             16  H  2  S      0.44636     0.42148
             17  H  2  S      0.07360     0.19466
             18  CL 3  S      1.99891     1.99848
             19  CL 3  S      1.99852     1.98181
             20  CL 3  X      1.99538     1.97800
             21  CL 3  Y      1.98969     1.95273
             22  CL 3  Z      1.99546     1.97822
             23  CL 3  S      1.38961     0.65574
             24  CL 3  X      1.35723     1.27404
             25  CL 3  Y      0.70162     0.64921
             26  CL 3  Z      1.36464     1.27929
             27  CL 3  S      0.55173     0.49664
             28  CL 3  X      0.64587     0.73520
             29  CL 3  Y      0.13099     0.29471
             30  CL 3  Z      0.63932     0.73423
             31  CL 3 XX      0.00528     0.27001
             32  CL 3 YY      0.02437     0.26176
             33  CL 3 ZZ      0.00286     0.26818
             34  CL 3 XY      0.00518     0.00638
             35  CL 3 XZ      0.00002     0.00002
             36  CL 3 YZ      0.00838     0.01081

          ----- MULLIKEN ATOMIC OVERLAP POPULATIONS -----
          (OFF-DIAGONAL ELEMENTS NEED TO BE MULTIPLIED BY 2)

             1           2           3

    1    8.3582403
    2    0.2473227   0.2989967
    3    0.0694277  -0.0263583  16.7619788

          TOTAL MULLIKEN AND LOWDIN ATOMIC POPULATIONS
       ATOM         MULL.POP.    CHARGE          LOW.POP.     CHARGE
    1 O             8.674991   -0.674991         8.558390   -0.558390
    2 H             0.519961    0.480039         0.616141    0.383859
    3 CL           16.805048    0.194952        16.825469    0.174531

          -------------------------------
          BOND ORDER AND VALENCE ANALYSIS     BOND ORDER THRESHOLD=0.050
          -------------------------------

                   BOND                       BOND                       BOND
  ATOM PAIR DIST  ORDER      ATOM PAIR DIST  ORDER      ATOM PAIR DIST  ORDER
    1   2  0.978  0.742        1   3  1.717  0.899

                       TOTAL       BONDED        FREE
      ATOM            VALENCE     VALENCE     VALENCE
    1 O                 1.641       1.641       0.000
    2 H                 0.736       0.736      -0.000
    3 CL                0.893       0.893      -0.000

          -----------------------------------------
          ATOMIC SPIN DENSITY AT THE NUCLEUS (A.U.)
          -----------------------------------------
                            SPIN DENS    ALPHA DENS     BETA DENS
    1  O            8.0     0.0000000     145.38991     145.38991
    2  H            1.0     0.0000000       0.18597       0.18597
    3  CL          17.0     0.0000000    1511.62296    1511.62296

          ---------------------
          ELECTROSTATIC MOMENTS
          ---------------------

 POINT   1           X           Y           Z (BOHR)    CHARGE
                 0.039532   -0.078282    0.000000       -0.00 (A.U.)
         DX          DY          DZ         /D/  (DEBYE)
    -1.859807    0.151204    0.000000    1.865943
 ...... END OF PROPERTY EVALUATION ......
 STEP CPU TIME =     0.00 TOTAL CPU TIME =          0.0 (      0.0 MIN)
 TOTAL WALL CLOCK TIME=          0.0 SECONDS, CPU UTILIZATION IS    98.31%

 BEGINNING ONE ELECTRON GRADIENT...
 ..... END OF 1-ELECTRON GRADIENT ......
 STEP CPU TIME =     0.00 TOTAL CPU TIME =          0.0 (      0.0 MIN)
 TOTAL WALL CLOCK TIME=          0.0 SECONDS, CPU UTILIZATION IS    98.36%

          ----------------------
          GRADIENT OF THE ENERGY
          ----------------------

 THE MINIMUM MEMORY REQUIRED FOR THIS RUN IS      77711 WORDS.
 USING     992261 WORDS FOR 2E- DERIVATIVE INTEGRAL CONTRIBUTIONS.
 THE COARSE/FINE SCHWARZ SCREENINGS SKIPPED            0/           0 BLOCKS.
 THE NUMBER OF GRADIENT INTEGRAL BLOCKS COMPUTED WAS      1993
 ...... END OF 2-ELECTRON GRADIENT ......
 STEP CPU TIME =     0.03 TOTAL CPU TIME =          0.1 (      0.0 MIN)
 TOTAL WALL CLOCK TIME=          0.1 SECONDS, CPU UTILIZATION IS    99.13%

          NSERCH=  0     ENERGY=    -534.8400949

                                 -----------------------
                                 GRADIENT (HARTREE/BOHR)
                                 -----------------------
        ATOM     ZNUC       DE/DX         DE/DY         DE/DZ
 --------------------------------------------------------------
    1  O            8.0     0.0285837     0.0189494     0.0000000
    2  H            1.0    -0.0272306     0.0036800     0.0000000
    3  CL          17.0    -0.0013530    -0.0226294     0.0000000

          MAXIMUM GRADIENT = 0.0285837    RMS GRADIENT = 0.0164826

 NSERCH:   0  E=     -534.8400949185  GRAD. MAX=  0.0285837  R.M.S.=  0.0164826

          FORCE CONSTANT MATRIX NOT UPDATED --- TAKING FIRST STEP
          MIN SEARCH, CORRECT HESSIAN, TRYING PURE NR STEP
               NR STEP HAS LENGTH         =   0.132866
          RADIUS OF STEP TAKEN=   0.13287  CURRENT TRUST RADIUS=   0.30000

 BEGINNING GEOMETRY SEARCH POINT NSERCH=   1 ...

 COORDINATES OF ALL ATOMS ARE (ANGS)
   ATOM   CHARGE       X              Y              Z
 ------------------------------------------------------------
 O           8.0  -0.0012412174   1.0726824353   0.0000000000
 H           1.0  -0.8946499980   1.3561723377  -0.0000000000
 CL         17.0   0.0597322254  -0.6022157730   0.0000000000

          INTERNUCLEAR DISTANCES (ANGS.)
          ------------------------------

                1 O          2 H          3 CL    

   1 O       0.0000000    0.9373077 *  1.6760077 *
   2 H       0.9373077 *  0.0000000    2.1785613 *
   3 CL      1.6760077 *  2.1785613 *  0.0000000  

  * ... LESS THAN  3.000

 ...... END OF ONE-ELECTRON INTEGRALS ......
 STEP CPU TIME =     0.00 TOTAL CPU TIME =          0.1 (      0.0 MIN)
 TOTAL WALL CLOCK TIME=          0.1 SECONDS, CPU UTILIZATION IS    99.13%
 TOTAL NUMBER OF NONZERO TWO-ELECTRON INTEGRALS =              107596
          8 INTEGRAL RECORDS WERE STORED ON DISK FILE  8.
  ...... END OF TWO-ELECTRON INTEGRALS .....
 STEP CPU TIME =     0.01 TOTAL CPU TIME =          0.1 (      0.0 MIN)
 TOTAL WALL CLOCK TIME=          0.1 SECONDS, CPU UTILIZATION IS    99.15%

          ---------------------------
                  UHF SCF CALCULATION
          ---------------------------
     DENSITY MATRIX CONV=  5.00E-05

 ITER EX      TOTAL ENERGY        E CHANGE  DENSITY CHANGE    ORB. GRAD 
          ---------------START SECOND ORDER SCF---------------
   1  0     -534.8382725688  -534.8382725688   0.021087932   0.012423328
   2  1     -534.8405069834    -0.0022344147   0.013947490   0.005710663
   3  2     -534.8408871309    -0.0003801475   0.003432743   0.002449342
   4  3     -534.8409462362    -0.0000591053   0.002692624   0.000721643
   5  4     -534.8409540444    -0.0000078082   0.001016077   0.000292242
   6  5     -534.8409548898    -0.0000008454   0.000249910   0.000083636
   7  6     -534.8409550063    -0.0000001166   0.000078566   0.000030009
   8  7     -534.8409550225    -0.0000000162   0.000024159   0.000009158
   9  8     -534.8409550240    -0.0000000015   0.000005494   0.000003307

          -----------------
          DENSITY CONVERGED
          -----------------
     TIME TO FORM FOCK OPERATORS=       0.0 SECONDS (       0.0 SEC/ITER)
     TIME TO SOLVE SCF EQUATIONS=       0.0 SECONDS (       0.0 SEC/ITER)

 FINAL UHF ENERGY IS     -534.8409550240 AFTER   9 ITERATIONS

          --------------------
          SPIN SZ   =    0.000
          S-SQUARED =   -0.000
          --------------------
 ...... END OF UHF CALCULATION ......
 STEP CPU TIME =     0.01 TOTAL CPU TIME =          0.1 (      0.0 MIN)
 TOTAL WALL CLOCK TIME=          0.1 SECONDS, CPU UTILIZATION IS    99.20%
 ..... END OF 1-ELECTRON GRADIENT ......
 STEP CPU TIME =     0.00 TOTAL CPU TIME =          0.1 (      0.0 MIN)
 TOTAL WALL CLOCK TIME=          0.1 SECONDS, CPU UTILIZATION IS    99.21%
 ...... END OF 2-ELECTRON GRADIENT ......
 STEP CPU TIME =     0.03 TOTAL CPU TIME =          0.1 (      0.0 MIN)
 TOTAL WALL CLOCK TIME=          0.1 SECONDS, CPU UTILIZATION IS    99.40%

          NSERCH=  1     ENERGY=    -534.8409550

                                 -----------------------
                                 GRADIENT (HARTREE/BOHR)
                                 -----------------------
        ATOM     ZNUC       DE/DX         DE/DY         DE/DZ
 --------------------------------------------------------------
    1  O            8.0    -0.0250407     0.0032148     0.0000000
    2  H            1.0     0.0188922     0.0049745     0.0000000
    3  CL          17.0     0.0061486    -0.0081892     0.0000000

          MAXIMUM GRADIENT = 0.0250407    RMS GRADIENT = 0.0111749

 NSERCH:   1  E=     -534.8409550240  GRAD. MAX=  0.0250407  R.M.S.=  0.0111749

          HESSIAN UPDATED USING THE BFGS FORMULA
             ACTUAL ENERGY CHANGE WAS  -0.0008601055
          PREDICTED ENERGY CHANGE WAS  -0.0023218769 RATIO=  0.370
          MIN SEARCH, CORRECT HESSIAN, TRYING PURE NR STEP
               NR STEP HAS LENGTH         =   0.097012
          RADIUS OF STEP TAKEN=   0.09701  CURRENT TRUST RADIUS=   0.13287

 BEGINNING GEOMETRY SEARCH POINT NSERCH=   2 ...

 COORDINATES OF ALL ATOMS ARE (ANGS)
   ATOM   CHARGE       X              Y              Z
 ------------------------------------------------------------
 O           8.0   0.0217362434   1.0868842142  -0.0000000000
 H           1.0  -0.8983057630   1.3224422117  -0.0000000000
 CL         17.0   0.0404105296  -0.5826874260   0.0000000000

          INTERNUCLEAR DISTANCES (ANGS.)
          ------------------------------

                1 O          2 H          3 CL    

   1 O       0.0000000    0.9497183 *  1.6696761 *
   2 H       0.9497183 *  0.0000000    2.1238426 *
   3 CL      1.6696761 *  2.1238426 *  0.0000000  

  * ... LESS THAN  3.000

 ...... END OF ONE-ELECTRON INTEGRALS ......
 STEP CPU TIME =     0.00 TOTAL CPU TIME =          0.1 (      0.0 MIN)
 TOTAL WALL CLOCK TIME=          0.1 SECONDS, CPU UTILIZATION IS    99.40%
 TOTAL NUMBER OF NONZERO TWO-ELECTRON INTEGRALS =              107349
          8 INTEGRAL RECORDS WERE STORED ON DISK FILE  8.
  ...... END OF TWO-ELECTRON INTEGRALS .....
 STEP CPU TIME =     0.01 TOTAL CPU TIME =          0.1 (      0.0 MIN)
 TOTAL WALL CLOCK TIME=          0.1 SECONDS, CPU UTILIZATION IS    99.39%

          ---------------------------
                  UHF SCF CALCULATION
          ---------------------------
     DENSITY MATRIX CONV=  5.00E-05

 ITER EX      TOTAL ENERGY        E CHANGE  DENSITY CHANGE    ORB. GRAD 
          ---------------START SECOND ORDER SCF---------------
   1  0     -534.8412825258  -534.8412825258   0.010607109   0.006954507
   2  1     -534.8418463618    -0.0005638360   0.007063943   0.002783227
   3  2     -534.8419437497    -0.0000973879   0.003490605   0.000947821
   4  3     -534.8419597139    -0.0000159642   0.001547358   0.000414566
   5  4     -534.8419633542    -0.0000036403   0.000283394   0.000112067
   6  5     -534.8419636186    -0.0000002644   0.000081001   0.000039170
   7  6     -534.8419636480    -0.0000000294   0.000034701   0.000010003
   8  7     -534.8419636514    -0.0000000034   0.000005951   0.000002818

          -----------------
          DENSITY CONVERGED
          -----------------
     TIME TO FORM FOCK OPERATORS=       0.0 SECONDS (       0.0 SEC/ITER)
     TIME TO SOLVE SCF EQUATIONS=       0.0 SECONDS (       0.0 SEC/ITER)

 FINAL UHF ENERGY IS     -534.8419636514 AFTER   8 ITERATIONS

          --------------------
          SPIN SZ   =    0.000
          S-SQUARED =   -0.000
          --------------------
 ...... END OF UHF CALCULATION ......
 STEP CPU TIME =     0.01 TOTAL CPU TIME =          0.1 (      0.0 MIN)
 TOTAL WALL CLOCK TIME=          0.1 SECONDS, CPU UTILIZATION IS    99.42%
 ..... END OF 1-ELECTRON GRADIENT ......
 STEP CPU TIME =     0.00 TOTAL CPU TIME =          0.1 (      0.0 MIN)
 TOTAL WALL CLOCK TIME=          0.1 SECONDS, CPU UTILIZATION IS    99.42%
 ...... END OF 2-ELECTRON GRADIENT ......
 STEP CPU TIME =     0.03 TOTAL CPU TIME =          0.1 (      0.0 MIN)
 TOTAL WALL CLOCK TIME=          0.1 SECONDS, CPU UTILIZATION IS    99.52%

          NSERCH=  2     ENERGY=    -534.8419637

                                 -----------------------
                                 GRADIENT (HARTREE/BOHR)
                                 -----------------------
        ATOM     ZNUC       DE/DX         DE/DY         DE/DZ
 --------------------------------------------------------------
    1  O            8.0    -0.0013809     0.0002698     0.0000000
    2  H            1.0     0.0015367    -0.0006698     0.0000000
    3  CL          17.0    -0.0001558     0.0003999     0.0000000

          MAXIMUM GRADIENT = 0.0015367    RMS GRADIENT = 0.0007434

 NSERCH:   2  E=     -534.8419636514  GRAD. MAX=  0.0015367  R.M.S.=  0.0007434

          HESSIAN UPDATED USING THE BFGS FORMULA
             ACTUAL ENERGY CHANGE WAS  -0.0010086274
          PREDICTED ENERGY CHANGE WAS  -0.0009876602 RATIO=  1.021
          MIN SEARCH, CORRECT HESSIAN, TRYING PURE NR STEP
[...]
   35  CL 3 XZ    0.000000   0.000000   0.000000   0.000000   0.000000
   36  CL 3 YZ    0.000000   0.000000   0.000000   0.000000   0.000000

                      6          7          8          9         10
                   -8.0711    -1.4188    -1.0610    -0.7236    -0.6123
                     A          A          A          A          A   
    1  O  1  S    0.000000   0.197546   0.079157   0.050187   0.000000
    2  O  1  S    0.000000  -0.450162  -0.184688  -0.111578   0.000000
    3  O  1  X    0.000000   0.071513   0.081098  -0.468096   0.000000
    4  O  1  Y    0.000000   0.048438  -0.145710   0.147420   0.000000
    5  O  1  Z   -0.000012   0.000000   0.000000   0.000000  -0.544364
    6  O  1  S    0.000000  -0.421964  -0.216694  -0.217497   0.000000
    7  O  1  X    0.000000   0.041485   0.040730  -0.294740   0.000000
    8  O  1  Y    0.000000   0.039826  -0.073651   0.104366   0.000000
    9  O  1  Z   -0.000152   0.000000   0.000000   0.000000  -0.391932
   10  O  1 XX    0.000000  -0.022411  -0.020137   0.046979   0.000000
   11  O  1 YY    0.000000  -0.022168   0.017103  -0.025987   0.000000
   12  O  1 ZZ    0.000000   0.002259  -0.001957  -0.005868   0.000000
   13  O  1 XY    0.000000   0.002884   0.008210   0.004780   0.000000
   14  O  1 XZ    0.000007   0.000000   0.000000   0.000000   0.023009
   15  O  1 YZ   -0.000315   0.000000   0.000000   0.000000   0.021595
   16  H  2  S    0.000000  -0.121779  -0.102150   0.236240   0.000000
   17  H  2  S    0.000000   0.007232  -0.016077   0.096235   0.000000
   18  CL 3  S    0.000000  -0.027452   0.074973   0.015215   0.000000
   19  CL 3  S    0.000000   0.124444  -0.340674  -0.071528   0.000000
   20  CL 3  X    0.000000  -0.003284  -0.001539   0.063953   0.000000
   21  CL 3  Y    0.000000   0.048370   0.006900   0.087791   0.000000
   22  CL 3  Z   -0.993774   0.000000   0.000000   0.000000   0.142312
   23  CL 3  S    0.000000  -0.230956   0.690572   0.147365   0.000000
   24  CL 3  X    0.000000   0.006913   0.003678  -0.159959   0.000000
   25  CL 3  Y    0.000000  -0.102843  -0.017932  -0.215452   0.000000
   26  CL 3  Z   -0.019655   0.000000   0.000000   0.000000  -0.363503
   27  CL 3  S    0.000000  -0.051711   0.294894   0.133407   0.000000
   28  CL 3  X    0.000000   0.001959  -0.003757  -0.060424   0.000000
   29  CL 3  Y    0.000000   0.006928  -0.010515  -0.038677   0.000000
   30  CL 3  Z    0.004243   0.000000   0.000000   0.000000  -0.161984
   31  CL 3 XX    0.000000   0.009453   0.001285   0.015069   0.000000
   32  CL 3 YY    0.000000  -0.036632   0.002692  -0.038468   0.000000
   33  CL 3 ZZ    0.000000   0.010846   0.000142   0.011024   0.000000
   34  CL 3 XY    0.000000   0.003344   0.000739  -0.021909   0.000000
   35  CL 3 XZ    0.000043   0.000000   0.000000   0.000000   0.002398
   36  CL 3 YZ   -0.000453   0.000000   0.000000   0.000000  -0.032680

                     11         12         13         14         15
                   -0.6031    -0.4648    -0.4386     0.1157     0.2410
                     A          A          A          A          A   
    1  O  1  S    0.043189  -0.026599   0.000000   0.084917   0.044832
    2  O  1  S   -0.119200   0.058569   0.000000  -0.104486  -0.000312
    3  O  1  X   -0.204889   0.211240   0.000000   0.090582   0.237361
    4  O  1  Y   -0.407531   0.080884   0.000000   0.335466  -0.236280
    5  O  1  Z    0.000000   0.000000  -0.374629   0.000000   0.000000
    6  O  1  S   -0.127155   0.130929   0.000000  -0.934094  -0.778244
    7  O  1  X   -0.153052   0.160705   0.000000   0.179989   0.597543
    8  O  1  Y   -0.321813   0.073850   0.000000   0.504127  -0.419951
    9  O  1  Z    0.000000   0.000000  -0.315457   0.000000   0.000000
   10  O  1 XX   -0.001622  -0.018101   0.000000   0.025101   0.019906
   11  O  1 YY    0.028314  -0.004011   0.000000   0.027363   0.038095
   12  O  1 ZZ   -0.016353   0.004100   0.000000   0.036378   0.043894
   13  O  1 XY    0.027779   0.007112   0.000000  -0.015788   0.002823
   14  O  1 XZ    0.000000   0.000000   0.015711   0.000000   0.000000
   15  O  1 YZ    0.000000   0.000000  -0.001231   0.000000   0.000000
   16  H  2  S    0.010379  -0.097471   0.000000   0.047172   0.085529
   17  H  2  S    0.000428  -0.075187   0.000000   0.457614   1.625006
   18  CL 3  S   -0.014278  -0.000503   0.000000   0.017119  -0.017679
   19  CL 3  S    0.067358  -0.000237   0.000000  -0.084762   0.065551
   20  CL 3  X    0.074175   0.269074   0.000000   0.001921  -0.015652
   21  CL 3  Y   -0.168467   0.031049   0.000000  -0.171957   0.062833
   22  CL 3  Z    0.000000   0.000000  -0.249710   0.000000   0.000000
   23  CL 3  S   -0.145883  -0.010862   0.000000   0.162562  -0.233222
   24  CL 3  X   -0.189132  -0.708436   0.000000  -0.004746   0.051036
   25  CL 3  Y    0.418813  -0.080889   0.000000   0.448484  -0.159093
   26  CL 3  Z    0.000000   0.000000   0.661763   0.000000   0.000000
   27  CL 3  S   -0.175197   0.038233   0.000000   0.368783  -0.130514
   28  CL 3  X   -0.090835  -0.387334   0.000000  -0.011271  -0.009733
   29  CL 3  Y    0.110595  -0.017001   0.000000   0.778054  -0.427171
   30  CL 3  Z    0.000000   0.000000   0.366315   0.000000   0.000000
   31  CL 3 XX   -0.017595   0.002691   0.000000   0.050066  -0.018804
   32  CL 3 YY    0.059453  -0.008658   0.000000  -0.097810   0.039733
   33  CL 3 ZZ   -0.020291  -0.000074   0.000000   0.043078  -0.041750
   34  CL 3 XY   -0.018475   0.007536   0.000000   0.005745   0.013972
   35  CL 3 XZ    0.000000   0.000000  -0.001806   0.000000   0.000000
   36  CL 3 YZ    0.000000   0.000000  -0.021394   0.000000   0.000000

                     16         17         18         19         20
                    0.5327     0.6036     0.6211     0.6247     0.9394
                     A          A          A          A          A   
    1  O  1  S   -0.005513   0.001621   0.000000  -0.005434  -0.019689
    2  O  1  S   -0.017711   0.153172   0.000000   0.093523   0.169657
    3  O  1  X    0.087131  -0.020734   0.000000  -0.021510   0.132384
    4  O  1  Y    0.016326  -0.217652   0.000000   0.022416   0.005068
    5  O  1  Z    0.000000   0.000000   0.056294   0.000000   0.000000
    6  O  1  S    0.288179  -0.667015   0.000000  -0.116521  -0.175986
    7  O  1  X    0.124182  -0.026388   0.000000   0.098849  -0.523927
    8  O  1  Y   -0.285547   0.138630   0.000000   0.048500   0.165023
    9  O  1  Z    0.000000   0.000000   0.128427   0.000000   0.000000
   10  O  1 XX   -0.028097   0.081801   0.000000   0.024787  -0.041713
   11  O  1 YY    0.067089  -0.059498   0.000000   0.008961   0.071271
   12  O  1 ZZ   -0.034135   0.081273   0.000000   0.037215   0.099706
   13  O  1 XY   -0.014212   0.018318   0.000000  -0.023792   0.168606
   14  O  1 XZ    0.000000   0.000000   0.000265   0.000000   0.000000
   15  O  1 YZ    0.000000   0.000000  -0.032678   0.000000   0.000000
   16  H  2  S    0.016254   0.060242   0.000000   0.017554  -0.761904
   17  H  2  S    0.468065  -0.229514   0.000000  -0.292862   0.302515
   18  CL 3  S    0.066911   0.000822   0.000000  -0.003512  -0.002802
   19  CL 3  S   -0.063093  -0.018187   0.000000  -0.004400   0.007173
   20  CL 3  X   -0.015261   0.030775   0.000000  -0.288075  -0.034071
   21  CL 3  Y    0.023671   0.298295   0.000000   0.029107   0.024983
   22  CL 3  Z    0.000000   0.000000  -0.290370   0.000000   0.000000
   23  CL 3  S    1.394774  -0.032436   0.000000  -0.091712  -0.055395
   24  CL 3  X    0.058300  -0.119610   0.000000   1.138527   0.115865
   25  CL 3  Y   -0.064892  -1.140563   0.000000  -0.118285  -0.082138
   26  CL 3  Z    0.000000   0.000000   1.145204   0.000000   0.000000
   27  CL 3  S   -2.096695   0.273874   0.000000   0.222443   0.096386
   28  CL 3  X   -0.043338   0.111110   0.000000  -1.301010   0.053396
   29  CL 3  Y   -0.383251   1.476640   0.000000   0.246766   0.139501
   30  CL 3  Z    0.000000   0.000000  -1.284576   0.000000   0.000000
   31  CL 3 XX    0.079981   0.021643   0.000000  -0.004975  -0.023552
   32  CL 3 YY    0.231272  -0.045464   0.000000  -0.039372   0.030680
   33  CL 3 ZZ    0.066150   0.028973   0.000000   0.010608   0.008066
   34  CL 3 XY    0.003777   0.006281   0.000000   0.070876  -0.659455
   35  CL 3 XZ    0.000000   0.000000  -0.001844   0.000000   0.000000
   36  CL 3 YZ    0.000000   0.000000   0.063420   0.000000   0.000000

                     21         22         23
                    1.0023     1.0718     1.1185
                     A          A          A   
    1  O  1  S    0.000000  -0.017578   0.000000
    2  O  1  S    0.000000  -0.505562   0.000000
    3  O  1  X    0.000000  -0.602886   0.000000
    4  O  1  Y    0.000000  -0.349547   0.000000
    5  O  1  Z    0.596626   0.000000   0.004121
    6  O  1  S    0.000000   0.931589   0.000000
    7  O  1  X    0.000000   0.290398   0.000000
    8  O  1  Y    0.000000   0.597333   0.000000
    9  O  1  Z   -0.556050   0.000000  -0.006337
   10  O  1 XX    0.000000  -0.308243   0.000000
   11  O  1 YY    0.000000  -0.098432   0.000000
   12  O  1 ZZ    0.000000  -0.134613   0.000000
   13  O  1 XY    0.000000   0.002448   0.000000
   14  O  1 XZ   -0.001615   0.000000  -0.053062
   15  O  1 YZ    0.140215   0.000000   0.002304
   16  H  2  S    0.000000  -0.523615   0.000000
   17  H  2  S    0.000000   0.156716   0.000000
   18  CL 3  S    0.000000  -0.000936   0.000000
   19  CL 3  S    0.000000   0.009623   0.000000
   20  CL 3  X    0.000000  -0.008431   0.000000
   21  CL 3  Y    0.000000   0.014914   0.000000
   22  CL 3  Z   -0.018361   0.000000   0.000762
   23  CL 3  S    0.000000  -0.010992   0.000000
   24  CL 3  X    0.000000   0.034325   0.000000
   25  CL 3  Y    0.000000  -0.030978   0.000000
   26  CL 3  Z    0.061931   0.000000  -0.002255
   27  CL 3  S    0.000000   0.052465   0.000000
   28  CL 3  X    0.000000  -0.082732   0.000000
   29  CL 3  Y    0.000000   0.081491   0.000000
   30  CL 3  Z    0.071074   0.000000   0.000893
   31  CL 3 XX    0.000000  -0.288885   0.000000
   32  CL 3 YY    0.000000   0.343265   0.000000
   33  CL 3 ZZ    0.000000  -0.009837   0.000000
   34  CL 3 XY    0.000000   0.183176   0.000000
   35  CL 3 XZ    0.020569   0.000000  -0.997211
   36  CL 3 YZ   -0.738412   0.000000  -0.021362

     ----------------------------------------------------------------
     PROPERTY VALUES FOR THE UHF   SELF-CONSISTENT FIELD WAVEFUNCTION
     ----------------------------------------------------------------

          -----------------
          ENERGY COMPONENTS
          -----------------

         WAVEFUNCTION NORMALIZATION =       1.0000000000

                ONE ELECTRON ENERGY =    -841.8834069334
                TWO ELECTRON ENERGY =     255.2717208727
           NUCLEAR REPULSION ENERGY =      51.7697194968
                                      ------------------
                       TOTAL ENERGY =    -534.8419665639

 ELECTRON-ELECTRON POTENTIAL ENERGY =     255.2717208727
  NUCLEUS-ELECTRON POTENTIAL ENERGY =   -1376.2867891022
   NUCLEUS-NUCLEUS POTENTIAL ENERGY =      51.7697194968
                                      ------------------
             TOTAL POTENTIAL ENERGY =   -1069.2453487327
               TOTAL KINETIC ENERGY =     534.4033821688
                 VIRIAL RATIO (V/T) =       2.0008206991

  ...... PI ENERGY ANALYSIS ......

 ENERGY ANALYSIS:
            FOCK ENERGY=   -331.3399627502
          BARE H ENERGY=   -841.8834069334
     ELECTRONIC ENERGY =   -586.6116848418
         KINETIC ENERGY=    534.4033821688
          N-N REPULSION=     51.7697194968
           TOTAL ENERGY=   -534.8419653450
        SIGMA PART(1+2)=   -516.2772361074
               (K,V1,2)=    483.6194417766  -1203.0779848408    203.1813069568
           PI PART(1+2)=    -70.3344487344
               (K,V1,2)=     50.7839403922   -173.2088042614     52.0904151347
  SIGMA SKELETON, ERROR=   -464.5075166106      0.0000000000
             MIXED PART= 0.00000E+00 0.00000E+00 0.00000E+00 0.00000E+00
 ...... END OF PI ENERGY ANALYSIS ......

          ---------------------------------------
          MULLIKEN AND LOWDIN POPULATION ANALYSES
          ---------------------------------------

     ATOMIC MULLIKEN POPULATION IN EACH MOLECULAR ORBITAL
        ALPHA ORBITALS

                      1          2          3          4          5

                  1.000000   1.000000   1.000000   1.000000   1.000000

    1             0.000000   1.000000  -0.000129  -0.000201  -0.000006
    2            -0.000000  -0.000000   0.000016   0.000008   0.000005
    3             1.000000   0.000000   1.000113   1.000193   1.000002

                      6          7          8          9         10

                  1.000000   1.000000   1.000000   1.000000   1.000000

    1             0.000001   0.801692   0.190015   0.661074   0.724340
    2             0.000000   0.052403   0.032736   0.156902   0.000000
    3             0.999999   0.145904   0.777249   0.182024   0.275660

                     11         12         13

                  1.000000   1.000000   1.000000

    1             0.590000   0.107596   0.270819
    2             0.000234   0.017891   0.000000
    3             0.409766   0.874513   0.729181

     ATOMIC MULLIKEN POPULATION IN EACH MOLECULAR ORBITAL
         BETA ORBITALS

                      1          2          3          4          5

                  1.000000   1.000000   1.000000   1.000000   1.000000

    1             0.000000   1.000000  -0.000129  -0.000201  -0.000006
    2            -0.000000  -0.000000   0.000016   0.000008   0.000005
    3             1.000000   0.000000   1.000113   1.000193   1.000002

                      6          7          8          9         10

                  1.000000   1.000000   1.000000   1.000000   1.000000

    1             0.000001   0.801692   0.190015   0.661074   0.724340
    2             0.000000   0.052403   0.032736   0.156902   0.000000
    3             0.999999   0.145904   0.777249   0.182024   0.275660

                     11         12         13

                  1.000000   1.000000   1.000000

    1             0.590000   0.107596   0.270819
    2             0.000234   0.017891   0.000000
    3             0.409766   0.874513   0.729181

     ATOMIC SPIN POPULATION (ALPHA MINUS BETA)
       ATOM         MULL.POP.                    LOW.POP.
    1 O             0.000000                     0.000000
    2 H             0.000000                     0.000000
    3 CL            0.000000                     0.000000


          ********* ALL ELECTRONS ********

               ----- POPULATIONS IN EACH AO -----
                             MULLIKEN      LOWDIN
              1  O  1  S      1.99552     1.97779
              2  O  1  S      0.92842     0.74080
              3  O  1  X      0.94100     0.89131
              4  O  1  Y      0.67798     0.64511
              5  O  1  Z      1.19705     1.17725
              6  O  1  S      0.93145     0.48402
              7  O  1  X      0.60618     0.64940
              8  O  1  Y      0.53815     0.59816
              9  O  1  Z      0.78815     0.80966
             10  O  1 XX      0.03816     0.20534
             11  O  1 YY      0.03434     0.20167
             12  O  1 ZZ      0.00364     0.17381
             13  O  1 XY      0.00525     0.01164
             14  O  1 XZ      0.00156     0.00156
             15  O  1 YZ      0.00356     0.00836
             16  H  2  S      0.45890     0.43151
             17  H  2  S      0.06148     0.18708
             18  CL 3  S      1.99890     1.99847
             19  CL 3  S      1.99849     1.98165
             20  CL 3  X      1.99538     1.97802
             21  CL 3  Y      1.98967     1.95278
             22  CL 3  Z      1.99547     1.97826
             23  CL 3  S      1.38537     0.65221
             24  CL 3  X      1.35900     1.27465
             25  CL 3  Y      0.70415     0.65088
             26  CL 3  Z      1.36691     1.28047
             27  CL 3  S      0.55211     0.49486
             28  CL 3  X      0.64306     0.73084
             29  CL 3  Y      0.10940     0.28004
             30  CL 3  Z      0.63667     0.73057
             31  CL 3 XX      0.00583     0.26956
             32  CL 3 YY      0.02834     0.26263
             33  CL 3 ZZ      0.00331     0.26765
             34  CL 3 XY      0.00651     0.00813
             35  CL 3 XZ      0.00002     0.00002
             36  CL 3 YZ      0.01061     0.01386

          ----- MULLIKEN ATOMIC OVERLAP POPULATIONS -----
          (OFF-DIAGONAL ELEMENTS NEED TO BE MULTIPLIED BY 2)

             1           2           3

    1    8.3846977
    2    0.2541267   0.2929990
    3    0.0515815  -0.0267383  16.7643636

          TOTAL MULLIKEN AND LOWDIN ATOMIC POPULATIONS
       ATOM         MULL.POP.    CHARGE          LOW.POP.     CHARGE
    1 O             8.690406   -0.690406         8.575881   -0.575881
    2 H             0.520387    0.479613         0.618591    0.381409
    3 CL           16.789207    0.210793        16.805528    0.194472

          -------------------------------
          BOND ORDER AND VALENCE ANALYSIS     BOND ORDER THRESHOLD=0.050
          -------------------------------

                   BOND                       BOND                       BOND
  ATOM PAIR DIST  ORDER      ATOM PAIR DIST  ORDER      ATOM PAIR DIST  ORDER
    1   2  0.951  0.741        1   3  1.670  0.885

                       TOTAL       BONDED        FREE
      ATOM            VALENCE     VALENCE     VALENCE
    1 O                 1.626       1.626      -0.000
    2 H                 0.736       0.736      -0.000
    3 CL                0.880       0.880      -0.000

          -----------------------------------------
          ATOMIC SPIN DENSITY AT THE NUCLEUS (A.U.)
          -----------------------------------------
                            SPIN DENS    ALPHA DENS     BETA DENS
    1  O            8.0     0.0000000     145.32611     145.32611
    2  H            1.0     0.0000000       0.19525       0.19525
    3  CL          17.0     0.0000000    1511.59681    1511.59681

          ---------------------
          ELECTROSTATIC MOMENTS
          ---------------------

 POINT   1           X           Y           Z (BOHR)    CHARGE
                 0.032003   -0.061687   -0.000000       -0.00 (A.U.)
         DX          DY          DZ         /D/  (DEBYE)
    -1.817912    0.162157   -0.000000    1.825129
 ...... END OF PROPERTY EVALUATION ......
 STEP CPU TIME =     0.00 TOTAL CPU TIME =          0.2 (      0.0 MIN)
 TOTAL WALL CLOCK TIME=          0.2 SECONDS, CPU UTILIZATION IS    99.62%
  $VIB   
          IVIB=   0 IATOM=   0 ICOORD=   0 E=     -534.8419665639
  8.786354358E-06 3.036448943E-05 0.000000000E+00-6.022742098E-06-4.215318170E-06
  0.000000000E+00-2.763613372E-06-2.614918657E-05 0.000000000E+00
 -1.817911544E+00 1.621574066E-01-3.292734986E-17
 ......END OF GEOMETRY SEARCH......
 STEP CPU TIME =     0.00 TOTAL CPU TIME =          0.2 (      0.0 MIN)
 TOTAL WALL CLOCK TIME=          0.2 SECONDS, CPU UTILIZATION IS    99.62%
               992297  WORDS OF DYNAMIC MEMORY USED
 EXECUTION OF GAMESS TERMINATED NORMALLY 19:56:12 20-OCT-2025    
----- accounting info -----
Files used on the parent node Macbooks-MacBook-Pro.local were:
-rw-r--r--  1 macbookpro  staff      289 Oct 20 19:56 /Users/macbookpro/local/gamess/scr/hocl_q0m1_uhf_631g_star.F05
-rw-r--r--  1 macbookpro  staff  1440128 Oct 20 19:56 /Users/macbookpro/local/gamess/scr/hocl_q0m1_uhf_631g_star.F08
-rw-r--r--  1 macbookpro  staff  2061360 Oct 20 19:56 /Users/macbookpro/local/gamess/scr/hocl_q0m1_uhf_631g_star.F10
-rw-r--r--  1 macbookpro  staff   154220 Oct 20 19:56 /Users/macbookpro/local/gamess/scr/hocl_q0m1_uhf_631g_star.dat
Mon Oct 20 19:56:12 +07 2025
0.270u 0.056s 0:00.32 100.0%	0+0k 0+0io 46pf+0w
