1 : na2_q0m1_uhf_631g_star.inp
----- GAMESS execution script 'rungms' -----
This job is running on host Macbooks-MacBook-Pro.local
under operating system Darwin at Mon Oct 20 19:56:13 +07 2025
Available scratch disk space (Kbyte units) at beginning of the job is
Filesystem   1024-blocks      Used Available Capacity iused      ifree %iused  Mounted on
/dev/disk3s5   482797652 122178452 339914760    27% 1896449 3399147600    0%   /System/Volumes/Data
GAMESS temporary binary files will be written to /Users/macbookpro/local/gamess/scr
GAMESS supplementary output files will be written to /Users/macbookpro/local/gamess/scr
Copying input file /Users/macbookpro/sq2_data/na2_q0m1_uhf_631g_star.inp to your run's scratch directory...
          *******************************************************
          *                                                     *
          *          GAMESS VERSION = 30 JUN 2023 (R1)          *
          *                                                     *
          *              doi.org/10.1063/5.0005188              *
          *                                                     *
          **************** 64 BIT LINUX VERSION *****************

  GAMESS HAS BEEN MADE POSSIBLE WITH IMPORTANT CONTRIBUTIONS FROM
  THE FOLLOWING INDIVIDUALS (IN ALPHABETICAL ORDER):

     IVANA ADAMOVIC, CHRISTINE AIKENS, TOMOKO AKAMA,
     MELISA ALKAN, YURI ALEXEEV, YURIKO AOKI, POOJA ARORA,
     TOSHIO ASADA, ANDREY ASADCHEV, KIM K. BALDRIDGE,
     PRADIPTA BANDYOPADHYAY, TAYLOR A. BARNES, MARIA BARYSZ,
     ROB BELL, JONATHAN BENTZ, COLLEEN BERTONI,
     JERRY A. BOATZ, BRETT BODE, KURT BRORSEN, KURT R. BRORSEN,
     LAIMUTIS BYTAUTAS, CALEB CARLIN, LAURA CARRINGTON,
     GALINA CHABAN, BENOIT CHAMPAGNE, WEI CHEN, MAHITO CHIBA,
     DAN CHIPMAN, CHEOL HO CHOI, TANNER CULPITT,
     DIPAYAN DATTA, PAUL DAY, ALBERT DEFUSCO,
     NUWAN DESILVA, J. EMILIANO DEUSTUA,
     TIM DUDLEY, MICHEL DUPUIS, STEVEN T. ELBERT,
     DMITRI FEDOROV, KATHERINE FERRERAS, MICHAEL FILATOV,
     ALEX FINDLATER,GRAHAM FLETCHER, MARK FREITAG,
     CHRISTIAN FRIEDL, DAVID GARMER, 
     IGOR S. GERASIMOV, KURT GLAESEMANN,
     MARK S. GORDON, JEFFREY R. GOUR, FENG LONG GU,
     EMILIE B. GUIDEZ, ANASTASIA GUNINA, SHARON HAMMES-SCHIFFER,
     MASATAKE HARUTA, KIMIHIKO HIRAO, YASUHIRO IKABATA,
     TZVETELIN IORDANOV, STEPHAN IRLE, KAZUYA ISHIMURA,
     JOE IVANIC, FRANK JENSEN, JAN H. JENSEN, VISVALDAS KAIRYS,
     MUNEAKI KAMIYA, MICHIO KATOUDA, NAOAKI KAWAKAMI, DAN KEMP,
     BERNARD KIRTMAN, KAZUO KITAURA, MARIUSZ KLOBUKOWSKI,
     MASATO KOBAYASHI, KONSTANTIN KOMAROV, PRAKASHAN KORAMBATH,
     JACEK KORCHOWIEC, SHIRO KOSEKI, KAROL KOWALSKI,
     JIMMY KROMANN, STANISLAW A. KUCHARSKI, HENRY KURTZ,
     SAROM SOK LEANG, SEUNGHOON LEE, HUI LI, SHUHUA LI, WEI LI,
     JESSE J. LUTZ, ALEKSANDR O. LYKHIN,
     ILIAS MAGOULAS, MARCIN MAKOWSKI,
     JOANI MATO, NIKITA MATSUNAGA, BENEDETTA MENNUCCI,
     GRANT MERRILL, NORIYUKI MINEZAWA, VLADIMIR MIRONOV,
     EISAKU MIYOSHI, JOHN A. MONTGOMERY JR., HIROTOSHI MORI,
     JONATHAN MULLIN, MONIKA MUSIAL, SHIGERU NAGASE,
     TAKESHI NAGATA, HIROMI NAKAI, TAKAHITO NAKAJIMA,
     YUYA NAKAJIMA, HARUYUKI NAKANO, HIROYA NAKATA, SEAN NEDD,
     HEATHER NETZLOFF, KIET A. NGUYEN, YOSHIO NISHIMOTO,
     BOSILJKA NJEGIC, RYAN OLSON, MIKE PAK, ROBERTO PEVERATI,
     BUU PHAM, PIOTR PIECUCH, ANNA POMOGAEVA, DAVID POOLE,
     SPENCER PRUITT, OLIVIER QUINET, LUKE ROSKOP,
     KLAUS RUEDENBERG, ANDREW SAND, TOSAPORN SATTASATHUCHANA,
     NOZOMI SAWADA, MICHAEL W. SCHMIDT, PATRICK E. SCHNEIDER,
     JUNJI SEINO, PRACHI SHARMA, JUN SHEN, JIM SHOEMAKER,
     YINAN SHU, DEJUN SI, JONATHAN SKONE, LYUDMILA SLIPCHENKO,
     TONY SMITH, JIE SONG, MARK SPACKMAN, CASPER STEINMANN,
     WALT STEVENS, PEIFENG SU, SHUJUN SU, CHET SWALINA,
     CHINAMI TAKASHIMA, TETSUYA TAKETSUGU, ZHEN TAO,
     NANDUN THELLAMUREGE, SEIKEN TOKURA, JACOPO TOMASI,
     TSUGUKI TOUMA, TAKAO TSUNEDA, HIROAKI UMEDA,
     JORGE LUIS GALVEZ VALLEJO, YALI WANG, SIMON WEBB,
     AARON WEST, THERESA L. WINDUS, MARTA WLOCH,
     PENG XU, KIYOSHI YAGI, SUSUMU YANAGISAWA, YANG YANG,
     SOOHAENG YOO, TAKESHI YOSHIKAWA, FEDERICO ZAHARIEV,
     TOBY ZENG

  WHO ARE SUPPORTED BY THEIR INSTITUTION/UNIVERSITY/COMPANY/GROUP
  (IN ALPHABETICAL ORDER):

     EP ANALYTICS,
     FACULTES UNIVERSITAIRES NOTRE-DAME DE LA PAIX,
     INSTITUTE FOR MOLECULAR SCIENCE, IOWA STATE UNIVERSITY,
     JACKSON STATE UNIVERSITY, JOHANNES KEPLER UNIVERSITY LINZ,
     KYUNGPOOK NATIONAL UNIVERSITY
     KYUSHU UNIVERSITY, MICHIGAN STATE UNIVERSITY,
     MIE UNIVERSITY, THE MOLECULAR SCIENCES SOFTWARE INSTITUTE,
     MOSCOW STATE UNIVERSITY,
     N. COPERNICUS UNIVERSITY, NAGOYA UNIVERSITY,
     NANJING UNIVERSITY, NAT. INST. OF ADVANCED INDUSTRIAL
     SCIENCE AND TECHNOLOGY, NATIONAL INST. OF STANDARDS AND
     TECHNOLOGY, NESMEYANOV INSTITUTE OF ORGANOELEMENT COMPOUNDS
     OF RUSSIAN ACADEMY OF SCIENCES, OSAKA PREFECTURE UNIVERSITY,
     PENNSYLVANIA STATE UNIVERSITY, TOKYO INSTITUTE OF TECHNOLOGY,
     UNIVERSITY OF AARHUS, UNIVERSITY OF ALBERTA,
     UNIVERSITY OF CALIFORNIA AT SANTA BARBARA,
     UNIVERSITY OF COPENHAGEN, UNIVERSITY OF IOWA,
     UNIVERSITY OF MEMPHIS, UNIVERSITY OF MINNESOTA,
     UNIVERSITY OF NEBRASKA, UNIVERSITY OF NEW ENGLAND,
     UNIVERSITY OF NOTRE DAME, UNIVERSITY OF PISA,
     UNIVERSITY OF SILESIA, UNIVERSITY OF TOKYO,
     UNIVERSITY OF ZURICH, WASEDA UNIVERSITY,
     YALE UNIVERSITY

  GAMESS SOFTWARE MANAGEMENT TEAM FOR THIS RELEASE:
     MARK S. GORDON (TEAM LEAD),
     BRETT BODE (SENIOR ADVISOR),
     GIUSEPPE BARCA,
     COLLEEN BERTONI,
     KRISTOPHER KEIPERT (ADVISOR),
     SAROM S. LEANG (DEVELOPMENT LEAD),
     BUU PHAM,
     JACKSON HAYES (WEBSITE ADMINISTRATOR),
     PENG XU

 EXECUTION OF GAMESS BEGUN 19:56:13 20-OCT-2025    

            ECHO OF THE FIRST FEW INPUT CARDS -
 INPUT CARD> $CONTRL SCFTYP=UHF ICHARG=0 MULT=1                                             
 INPUT CARD> RUNTYP=OPTIMIZE                                                                
 INPUT CARD> $END                                                                           
 INPUT CARD> $BASIS GBASIS=N31 NGAUSS=6 NDFUNC=1 $END                                       
 INPUT CARD> $DATA                                                                          
 INPUT CARD> ... this is comment ...                                                        
 INPUT CARD> C1                                                                             
 INPUT CARD> NA   11   0.00000000   0.00000000   1.58455635                                 
 INPUT CARD> NA   11   0.00000000   0.00000000  -1.58455635                                 
 INPUT CARD> $END                                                                           
 INPUT CARD>                                                                                
      1000000 WORDS OF MEMORY AVAILABLE

     BASIS OPTIONS
     -------------
     GBASIS=N31          IGAUSS=       6      POLAR=POPN31  
     NDFUNC=       1     NFFUNC=       0     DIFFSP=       F
     NPFUNC=       0      DIFFS=       F     BASNAM=        


     RUN TITLE
     ---------
  ... this is comment ...                                                        

 THE POINT GROUP OF THE MOLECULE IS C1      
 THE ORDER OF THE PRINCIPAL AXIS IS     0

 ATOM      ATOMIC                      COORDINATES (BOHR)
           CHARGE         X                   Y                   Z
 NA         11.0     0.0000000000        0.0000000000        2.9943773136
 NA         11.0     0.0000000000        0.0000000000       -2.9943773136

          INTERNUCLEAR DISTANCES (ANGS.)
          ------------------------------

                1 NA         2 NA    

   1 NA      0.0000000    3.1691127  
   2 NA      3.1691127    0.0000000  

  * ... LESS THAN  3.000


     ATOMIC BASIS SET
     ----------------
 THE CONTRACTED PRIMITIVE FUNCTIONS HAVE BEEN UNNORMALIZED
 THE CONTRACTED BASIS FUNCTIONS ARE NOW NORMALIZED TO UNITY

  SHELL TYPE  PRIMITIVE        EXPONENT          CONTRACTION COEFFICIENT(S)

 NA        

      1   S       1          9993.2000000    0.001937659277
      1   S       2          1499.8900000    0.014806994478
      1   S       3           341.9510000    0.072705472884
      1   S       4            94.6796000    0.252628905780
      1   S       5            29.7345000    0.493241816042
      1   S       6            10.0063000    0.313168883201

      2   L       7           150.9630000   -0.003542083504    0.005001659710
      2   L       8            35.5878000   -0.043958843482    0.035510897939
      2   L       9            11.1683000   -0.109752108561    0.142824991711
      2   L      10             3.9020100    0.187398185364    0.338619980347
      2   L      11             1.3817700    0.646699639678    0.451578973792
      2   L      12             0.4663820    0.306058302735    0.273270984140

      3   L      13             0.4979660   -0.248503159333   -0.023022500428
      3   L      14             0.0843529   -0.131704084445    0.950359017650
      3   L      15             0.0666350    1.233520790897    0.059857901112

      4   L      16             0.0259544    1.000000000000    1.000000000000

      5   D      17             0.1750000    1.000000000000

 NA        

      6   S      18          9993.2000000    0.001937659277
      6   S      19          1499.8900000    0.014806994478
      6   S      20           341.9510000    0.072705472884
      6   S      21            94.6796000    0.252628905780
      6   S      22            29.7345000    0.493241816042
      6   S      23            10.0063000    0.313168883201

      7   L      24           150.9630000   -0.003542083504    0.005001659710
      7   L      25            35.5878000   -0.043958843482    0.035510897939
      7   L      26            11.1683000   -0.109752108561    0.142824991711
      7   L      27             3.9020100    0.187398185364    0.338619980347
      7   L      28             1.3817700    0.646699639678    0.451578973792
      7   L      29             0.4663820    0.306058302735    0.273270984140

      8   L      30             0.4979660   -0.248503159333   -0.023022500428
      8   L      31             0.0843529   -0.131704084445    0.950359017650
      8   L      32             0.0666350    1.233520790897    0.059857901112

      9   L      33             0.0259544    1.000000000000    1.000000000000

     10   D      34             0.1750000    1.000000000000

 TOTAL NUMBER OF BASIS SET SHELLS             =   10
 NUMBER OF CARTESIAN GAUSSIAN BASIS FUNCTIONS =   38
 NUMBER OF ELECTRONS                          =   22
 CHARGE OF MOLECULE                           =    0
 SPIN MULTIPLICITY                            =    1
 NUMBER OF OCCUPIED ORBITALS (ALPHA)          =   11
 NUMBER OF OCCUPIED ORBITALS (BETA )          =   11
 TOTAL NUMBER OF ATOMS                        =    2
 THE NUCLEAR REPULSION ENERGY IS       20.2045345872

 THIS MOLECULE IS RECOGNIZED AS BEING LINEAR,
 ORBITAL LZ DEGENERACY TOLERANCE ETOLLZ= 1.00E-06

     $CONTRL OPTIONS
     ---------------
 SCFTYP=UHF          RUNTYP=OPTIMIZE     EXETYP=RUN     
 MPLEVL=       0     CITYP =NONE         CCTYP =NONE         VBTYP =NONE    
 DFTTYP=NONE         TDDFT =NONE    
 MULT  =       1     ICHARG=       0     NZVAR =       0     COORD =UNIQUE  
 PP    =NONE         RELWFN=NONE         LOCAL =NONE         NUMGRD=       F
 ISPHER=      -1     NOSYM =       0     MAXIT =      30     UNITS =ANGS    
 PLTORB=       F     MOLPLT=       F     AIMPAC=       F     FRIEND=        
 NPRINT=       7     IREST =       0     GEOM  =INPUT   
 NORMF =       0     NORMP =       0     ITOL  =      20     ICUT  =       9
 INTTYP=BEST         GRDTYP=BEST         QMTTOL= 1.0E-06

     $SYSTEM OPTIONS
     ---------------
  REPLICATED MEMORY=     1000000 WORDS (ON EVERY NODE).
 DISTRIBUTED MEMDDI=           0 MILLION WORDS IN AGGREGATE,
 MEMDDI DISTRIBUTED OVER   1 PROCESSORS IS           0 WORDS/PROCESSOR.
 TOTAL MEMORY REQUESTED ON EACH PROCESSOR=     1000000 WORDS.
 TIMLIM=      525600.00 MINUTES, OR     365.0 DAYS.
 PARALL= F  BALTYP=  DLB     KDIAG=    0  COREFL= F
 MXSEQ2=     300 MXSEQ3=     150  mem10=         0  mem22=         0

          ----------------
          PROPERTIES INPUT
          ----------------

     MOMENTS            FIELD           POTENTIAL          DENSITY
 IEMOM =       1   IEFLD =       0   IEPOT =       0   IEDEN =       0
 WHERE =COMASS     WHERE =NUCLEI     WHERE =NUCLEI     WHERE =NUCLEI  
 OUTPUT=BOTH       OUTPUT=BOTH       OUTPUT=BOTH       OUTPUT=BOTH    
 IEMINT=       0   IEFINT=       0                     IEDINT=       0
                                                       MORB  =       0
          EXTRAPOLATION IN EFFECT
          SOSCF IN EFFECT
          DIIS or SOSCF will be reset if energy rises
 ORBITAL PRINTING OPTION: NPREO=     1    38     2     1

     -------------------------------
     INTEGRAL TRANSFORMATION OPTIONS
     -------------------------------
     NWORD  =            0
     CUTTRF = 1.0E-09     MPTRAN =       0
     DIRTRF =       F     AOINTS =DUP     

          ----------------------
          INTEGRAL INPUT OPTIONS
          ----------------------
 NOPK  =       1 NORDER=       0 SCHWRZ=       F

     ------------------------------------------
     THE POINT GROUP IS C1 , NAXIS= 0, ORDER= 1
     ------------------------------------------

     DIMENSIONS OF THE SYMMETRY SUBSPACES ARE
 A   =   38

 ..... DONE SETTING UP THE RUN .....
 STEP CPU TIME =     0.00 TOTAL CPU TIME =          0.0 (      0.0 MIN)
 TOTAL WALL CLOCK TIME=          0.0 SECONDS, CPU UTILIZATION IS    97.48%


          -----------------------------
          STATIONARY POINT LOCATION RUN
          -----------------------------

 OBTAINING INITIAL HESSIAN, HESS=GUESS   
 CARTESIAN COORDINATE OPTIMIZATION USING BADGER'S RULE FORCE CONSTANT GUESS

          PARAMETERS CONTROLLING GEOMETRY SEARCH ARE
          METHOD =QA                  UPHESS =BFGS    
          NNEG   =         0          NFRZ   =         0
          NSTEP  =        50          IFOLOW =         1
          HESS   =GUESS               RESTAR =         F
          IHREP  =         0          HSSEND =         F
          NPRT   =         0          NPUN   =         0
          OPTTOL = 1.000E-04          RMIN   = 1.500E-03
          RMAX   = 1.000E-01          RLIM   = 7.000E-02
          DXMAX  = 3.000E-01          PURIFY =         F
          MOVIE  =         F          TRUPD  =         T
          TRMAX  = 5.000E-01          TRMIN  = 5.000E-02
          ITBMAT =         5          STPT   =         F
          STSTEP = 1.000E-02          PROJCT=          T

 BEGINNING GEOMETRY SEARCH POINT NSERCH=   0 ...

 COORDINATES OF ALL ATOMS ARE (ANGS)
   ATOM   CHARGE       X              Y              Z
 ------------------------------------------------------------
 NA         11.0   0.0000000000   0.0000000000   1.5845563500
 NA         11.0   0.0000000000   0.0000000000  -1.5845563500

          ********************
          1 ELECTRON INTEGRALS
          ********************
 ...... END OF ONE-ELECTRON INTEGRALS ......
 STEP CPU TIME =     0.00 TOTAL CPU TIME =          0.0 (      0.0 MIN)
 TOTAL WALL CLOCK TIME=          0.0 SECONDS, CPU UTILIZATION IS    79.64%

          -------------
          GUESS OPTIONS
          -------------
          GUESS =HUCKEL            NORB  =       0          NORDER=       0
          MIX   =       F          PRTMO =       F          PUNMO =       F
          TOLZ  = 1.0E-08          TOLE  = 1.0E-05
          SYMDEN=       F          PURIFY=       F

 INITIAL GUESS ORBITALS GENERATED BY HUCKEL   ROUTINE.
 HUCKEL GUESS REQUIRES     12938 WORDS.

 SYMMETRIES FOR INITIAL GUESS ORBITALS FOLLOW.  ALPHA SET(S).
    11 ORBITALS ARE OCCUPIED (   10 CORE ORBITALS).
    11=A       12=A       13=A       14=A       15=A       16=A       17=A   
    18=A       19=A       20=A       21=A   

 SYMMETRIES FOR INITIAL GUESS ORBITALS FOLLOW.   BETA SET(S).
    11 ORBITALS ARE OCCUPIED (   10 CORE ORBITALS).
    11=A       12=A       13=A       14=A       15=A       16=A       17=A   
    18=A       19=A       20=A       21=A   
 ...... END OF INITIAL ORBITAL SELECTION ......
 STEP CPU TIME =     0.00 TOTAL CPU TIME =          0.0 (      0.0 MIN)
 TOTAL WALL CLOCK TIME=          0.0 SECONDS, CPU UTILIZATION IS    82.41%

                    ----------------------
                    AO INTEGRAL TECHNOLOGY
                    ----------------------
     S,P,L SHELL ROTATED AXIS INTEGRALS, REPROGRAMMED BY
        KAZUYA ISHIMURA (IMS) AND JOSE SIERRA (SYNSTAR).
     S,P,D,L SHELL ROTATED AXIS INTEGRALS PROGRAMMED BY
        KAZUYA ISHIMURA (INSTITUTE FOR MOLECULAR SCIENCE).
     S,P,D,F,G SHELL TO TOTAL QUARTET ANGULAR MOMENTUM SUM 5,
        ERIC PROGRAM BY GRAHAM FLETCHER (ELORET AND NASA ADVANCED
        SUPERCOMPUTING DIVISION, AMES RESEARCH CENTER).
     S,P,D,F,G,L SHELL GENERAL RYS QUADRATURE PROGRAMMED BY
        MICHEL DUPUIS (PACIFIC NORTHWEST NATIONAL LABORATORY).

          --------------------
          2 ELECTRON INTEGRALS
          --------------------

 THE -PK- OPTION IS OFF, THE INTEGRALS ARE NOT IN SUPERMATRIX FORM.
 STORING   15000 INTEGRALS/RECORD ON DISK, USING 12 BYTES/INTEGRAL.
 TWO ELECTRON INTEGRAL EVALUATION REQUIRES   90451 WORDS OF MEMORY.
 II,JST,KST,LST =  1  1  1  1 NREC =         1 INTLOC =    1
 II,JST,KST,LST =  2  1  1  1 NREC =         1 INTLOC =    2
 II,JST,KST,LST =  3  1  1  1 NREC =         1 INTLOC =   34
 II,JST,KST,LST =  4  1  1  1 NREC =         1 INTLOC =  214
 II,JST,KST,LST =  5  1  1  1 NREC =         1 INTLOC =  776
 II,JST,KST,LST =  6  1  1  1 NREC =         1 INTLOC = 2864
 II,JST,KST,LST =  7  1  1  1 NREC =         1 INTLOC = 3797
 II,JST,KST,LST =  8  1  1  1 NREC =         1 INTLOC = 9888
 II,JST,KST,LST =  9  1  1  1 NREC =         2 INTLOC = 5257
 II,JST,KST,LST = 10  1  1  1 NREC =         3 INTLOC = 5863
 TOTAL NUMBER OF NONZERO TWO-ELECTRON INTEGRALS =               70297
          5 INTEGRAL RECORDS WERE STORED ON DISK FILE  8.
  ...... END OF TWO-ELECTRON INTEGRALS .....
 STEP CPU TIME =     0.01 TOTAL CPU TIME =          0.0 (      0.0 MIN)
 TOTAL WALL CLOCK TIME=          0.0 SECONDS, CPU UTILIZATION IS    94.37%

          ---------------------------
                  UHF SCF CALCULATION
          ---------------------------

     NUCLEAR ENERGY =        20.2045345872
     MAXIT = 30     NPUNCH=  2     MULT=  1
     EXTRAP=T  DAMP=F  SHIFT=F  RSTRCT=F  DIIS=F  SOSCF=T
     DENSITY MATRIX CONV=  1.00E-05
     SOSCF WILL OPTIMIZE     297 ALPHA AND     297 BETA ROTATION ANGLES.
     SOGTOL= 2.500E-01
     MEMORY REQUIRED FOR UHF/ROHF ITERS=     49206 WORDS.

 ITER EX      TOTAL ENERGY        E CHANGE  DENSITY CHANGE    ORB. GRAD 
   1  0     -323.6272742503  -323.6272742503   0.152513381   0.000000000
          ---------------START SECOND ORDER SCF---------------
   2  1     -323.6804555287    -0.0531812784   0.037344309   0.008289870
   3  2     -323.6815913631    -0.0011358343   0.019994312   0.002023331
   4  3     -323.6817020672    -0.0001107041   0.004290221   0.000460991
   5  4     -323.6817078074    -0.0000057402   0.000536059   0.000126988
   6  5     -323.6817081314    -0.0000003239   0.000139953   0.000032871
   7  6     -323.6817081456    -0.0000000142   0.000054283   0.000007378
   8  7     -323.6817081465    -0.0000000009   0.000007586   0.000001121
   9  8     -323.6817081465    -0.0000000000   0.000001248   0.000000133

          -----------------
          DENSITY CONVERGED
          -----------------
     TIME TO FORM FOCK OPERATORS=       0.0 SECONDS (       0.0 SEC/ITER)
     TIME TO SOLVE SCF EQUATIONS=       0.0 SECONDS (       0.0 SEC/ITER)

 FINAL UHF ENERGY IS     -323.6817081465 AFTER   9 ITERATIONS

          --------------------
          SPIN SZ   =    0.000
          S-SQUARED =    0.000
          --------------------

 LZ VALUE ANALYSIS FOR THE MOS
 ----------------------------------------
 MO     1 (    1) HAS LZ(WEIGHT)= 0.00(100.0%) 
 MO     2 (    2) HAS LZ(WEIGHT)= 0.00(100.0%) 
 MO     3 (    3) HAS LZ(WEIGHT)= 0.00(100.0%) 
 MO     4 (    4) HAS LZ(WEIGHT)= 0.00(100.0%) 
 MO     5 (    5) HAS LZ(WEIGHT)= 0.00(100.0%) 
 MO     6 (    6) HAS LZ(WEIGHT)=-1.00( 50.0%)  1.00( 50.0%) 
 MO     7 (    6) HAS LZ(WEIGHT)=-1.00( 50.0%)  1.00( 50.0%) 
 MO     8 (    7) HAS LZ(WEIGHT)=-1.00( 50.0%)  1.00( 50.0%) 
 MO     9 (    7) HAS LZ(WEIGHT)=-1.00( 50.0%)  1.00( 50.0%) 
 MO    10 (    8) HAS LZ(WEIGHT)= 0.00(100.0%) 
 MO    11 (    9) HAS LZ(WEIGHT)= 0.00(100.0%) 
 MO    12 (   10) HAS LZ(WEIGHT)= 0.00(100.0%) 
 MO    13 (   11) HAS LZ(WEIGHT)=-1.00( 50.0%)  1.00( 50.0%) 
 MO    14 (   11) HAS LZ(WEIGHT)=-1.00( 50.0%)  1.00( 50.0%) 
 MO    15 (   12) HAS LZ(WEIGHT)= 0.00(100.0%) 
 MO    16 (   13) HAS LZ(WEIGHT)=-1.00( 50.0%)  1.00( 50.0%) 
 MO    17 (   13) HAS LZ(WEIGHT)=-1.00( 50.0%)  1.00( 50.0%) 
 MO    18 (   14) HAS LZ(WEIGHT)= 0.00(100.0%) 
 MO    19 (   15) HAS LZ(WEIGHT)= 0.00(100.0%) 
 MO    20 (   16) HAS LZ(WEIGHT)= 0.00(100.0%) 
 MO    21 (   17) HAS LZ(WEIGHT)= 0.00(100.0%) 
 MO    22 (   18) HAS LZ(WEIGHT)=-1.00( 50.0%)  1.00( 50.0%) 
 MO    23 (   18) HAS LZ(WEIGHT)=-1.00( 50.0%)  1.00( 50.0%) 
 MO    24 (   19) HAS LZ(WEIGHT)=-1.00( 50.0%)  1.00( 50.0%) 
 MO    25 (   19) HAS LZ(WEIGHT)=-1.00( 50.0%)  1.00( 50.0%) 
 MO    26 (   20) HAS LZ(WEIGHT)= 0.00(100.0%) 
 MO    27 (   21) HAS LZ(WEIGHT)=-1.00( 50.0%)  1.00( 50.0%) 
 MO    28 (   21) HAS LZ(WEIGHT)=-1.00( 50.0%)  1.00( 50.0%) 
 MO    29 (   22) HAS LZ(WEIGHT)=-2.00( 50.0%)  2.00( 50.0%) 
 MO    30 (   22) HAS LZ(WEIGHT)=-2.00( 50.0%)  2.00( 50.0%) 
 MO    31 (   23) HAS LZ(WEIGHT)= 0.00(100.0%) 
 MO    32 (   24) HAS LZ(WEIGHT)=-2.00( 50.0%)  2.00( 50.0%) 
 MO    33 (   24) HAS LZ(WEIGHT)=-2.00( 50.0%)  2.00( 50.0%) 
 MO    34 (   25) HAS LZ(WEIGHT)= 0.00(100.0%) 
 MO    35 (   26) HAS LZ(WEIGHT)=-1.00( 50.0%)  1.00( 50.0%) 
 MO    36 (   26) HAS LZ(WEIGHT)=-1.00( 50.0%)  1.00( 50.0%) 
 MO    37 (   27) HAS LZ(WEIGHT)= 0.00(100.0%) 
 MO    38 (   28) HAS LZ(WEIGHT)= 0.00(100.0%) 

  ----- ALPHA SET ----- 

          ------------
          EIGENVECTORS
          ------------

                      1          2          3          4          5
                  -40.4758   -40.4758    -2.7900    -2.7899    -1.5109
                     A          A          A          A          A   
    1  NA 1  S    0.705628   0.705631  -0.173798   0.173851   0.001018
    2  NA 1  S    0.006258   0.006246   0.726926  -0.726666  -0.004053
    3  NA 1  X    0.000000   0.000000  -0.000000   0.000000  -0.000000
    4  NA 1  Y    0.000000   0.000000  -0.000000   0.000000  -0.000000
    5  NA 1  Z    0.000002   0.000015   0.004488  -0.004364   0.705020
    6  NA 1  S   -0.000754  -0.001339   0.001681   0.006513   0.003352
    7  NA 1  X    0.000000   0.000000  -0.000000   0.000000  -0.000000
    8  NA 1  Y    0.000000   0.000000  -0.000000   0.000000  -0.000000
    9  NA 1  Z    0.000613  -0.000058   0.000161  -0.004235   0.008431
   10  NA 1  S   -0.000346   0.000492   0.000619  -0.011863  -0.001569
   11  NA 1  X    0.000000   0.000000  -0.000000   0.000000  -0.000000
   12  NA 1  Y    0.000000   0.000000  -0.000000   0.000000  -0.000000
   13  NA 1  Z    0.000262   0.000033  -0.000248   0.004966  -0.001793
   14  NA 1 XX   -0.000067   0.000126  -0.002004  -0.000152  -0.000905
   15  NA 1 YY   -0.000067   0.000126  -0.002004  -0.000152  -0.000905
   16  NA 1 ZZ   -0.000596   0.000125  -0.001582   0.002477  -0.000590
   17  NA 1 XY    0.000000   0.000000  -0.000000   0.000000  -0.000000
   18  NA 1 XZ    0.000000   0.000000  -0.000000   0.000000  -0.000000
   19  NA 1 YZ    0.000000   0.000000  -0.000000   0.000000  -0.000000
   20  NA 2  S   -0.705628   0.705631  -0.173798  -0.173851   0.001018
   21  NA 2  S   -0.006258   0.006246   0.726926   0.726666  -0.004053
   22  NA 2  X    0.000000   0.000000  -0.000000   0.000000  -0.000000
   23  NA 2  Y    0.000000   0.000000  -0.000000   0.000000  -0.000000
   24  NA 2  Z    0.000002  -0.000015  -0.004488  -0.004364  -0.705020
   25  NA 2  S    0.000754  -0.001339   0.001681  -0.006513   0.003352
   26  NA 2  X    0.000000   0.000000  -0.000000   0.000000  -0.000000
   27  NA 2  Y    0.000000   0.000000  -0.000000   0.000000  -0.000000
   28  NA 2  Z    0.000613   0.000058  -0.000161  -0.004235  -0.008431
   29  NA 2  S    0.000346   0.000492   0.000619   0.011863  -0.001569
   30  NA 2  X    0.000000   0.000000  -0.000000   0.000000  -0.000000
   31  NA 2  Y    0.000000   0.000000  -0.000000   0.000000  -0.000000
   32  NA 2  Z    0.000262  -0.000033   0.000248   0.004966   0.001793
   33  NA 2 XX    0.000067   0.000126  -0.002004   0.000152  -0.000905
   34  NA 2 YY    0.000067   0.000126  -0.002004   0.000152  -0.000905
   35  NA 2 ZZ    0.000596   0.000125  -0.001582  -0.002477  -0.000590
   36  NA 2 XY    0.000000   0.000000  -0.000000   0.000000  -0.000000
   37  NA 2 XZ    0.000000   0.000000  -0.000000   0.000000  -0.000000
   38  NA 2 YZ    0.000000   0.000000  -0.000000   0.000000  -0.000000

                      6          7          8          9         10
                   -1.5100    -1.5100    -1.5098    -1.5098    -1.5095
                     A          A          A          A          A   
    1  NA 1  S   -0.000000   0.000000   0.000000  -0.000000   0.001319
    2  NA 1  S   -0.000000   0.000000   0.000000  -0.000000  -0.005624
    3  NA 1  X    0.691083  -0.142456  -0.347892  -0.614195   0.000000
    4  NA 1  Y    0.142456   0.691083  -0.614195   0.347892   0.000000
    5  NA 1  Z   -0.000000   0.000000   0.000000  -0.000000   0.706533
    6  NA 1  S   -0.000000   0.000000   0.000000  -0.000000   0.003115
    7  NA 1  X    0.007492  -0.001544  -0.003570  -0.006303   0.000000
    8  NA 1  Y    0.001544   0.007492  -0.006303   0.003570   0.000000
    9  NA 1  Z   -0.000000   0.000000   0.000000  -0.000000   0.002159
   10  NA 1  S   -0.000000   0.000000   0.000000  -0.000000   0.001491
   11  NA 1  X   -0.001006   0.000207   0.000810   0.001430   0.000000
   12  NA 1  Y   -0.000207  -0.001006   0.001430  -0.000810   0.000000
   13  NA 1  Z   -0.000000   0.000000   0.000000  -0.000000  -0.001167
   14  NA 1 XX   -0.000000   0.000000   0.000000  -0.000000  -0.001154
   15  NA 1 YY   -0.000000   0.000000   0.000000  -0.000000  -0.001154
   16  NA 1 ZZ   -0.000000   0.000000   0.000000  -0.000000   0.005624
   17  NA 1 XY   -0.000000   0.000000   0.000000  -0.000000   0.000000
   18  NA 1 XZ    0.000730  -0.000151  -0.000713  -0.001259   0.000000
   19  NA 1 YZ    0.000151   0.000730  -0.001259   0.000713   0.000000
   20  NA 2  S   -0.000000   0.000000   0.000000  -0.000000  -0.001319
   21  NA 2  S   -0.000000   0.000000   0.000000  -0.000000   0.005624
   22  NA 2  X    0.691083  -0.142456   0.347892   0.614195   0.000000
   23  NA 2  Y    0.142456   0.691083   0.614195  -0.347892   0.000000
   24  NA 2  Z   -0.000000   0.000000   0.000000  -0.000000   0.706533
   25  NA 2  S   -0.000000   0.000000   0.000000  -0.000000  -0.003115
   26  NA 2  X    0.007492  -0.001544   0.003570   0.006303   0.000000
   27  NA 2  Y    0.001544   0.007492   0.006303  -0.003570   0.000000
   28  NA 2  Z   -0.000000   0.000000   0.000000  -0.000000   0.002159
   29  NA 2  S   -0.000000   0.000000   0.000000  -0.000000  -0.001491
   30  NA 2  X   -0.001006   0.000207  -0.000810  -0.001430   0.000000
   31  NA 2  Y   -0.000207  -0.001006  -0.001430   0.000810   0.000000
   32  NA 2  Z   -0.000000   0.000000   0.000000  -0.000000  -0.001167
   33  NA 2 XX   -0.000000   0.000000   0.000000  -0.000000   0.001154
   34  NA 2 YY   -0.000000   0.000000   0.000000  -0.000000   0.001154
   35  NA 2 ZZ   -0.000000   0.000000   0.000000  -0.000000  -0.005624
   36  NA 2 XY   -0.000000   0.000000   0.000000  -0.000000   0.000000
   37  NA 2 XZ   -0.000730   0.000151  -0.000713  -0.001259   0.000000
   38  NA 2 YZ   -0.000151  -0.000730  -0.001259   0.000713   0.000000

                     11         12         13         14         15
                   -0.1640     0.0058     0.0344     0.0344     0.0479
                     A          A          A          A          A   
    1  NA 1  S    0.025276   0.016052  -0.000000  -0.000000  -0.005138
    2  NA 1  S   -0.152412  -0.110434  -0.000000  -0.000000   0.004864
    3  NA 1  X    0.000000  -0.000000  -0.051075   0.003745  -0.000000
    4  NA 1  Y    0.000000  -0.000000  -0.003745  -0.051075  -0.000000
    5  NA 1  Z    0.033338  -0.034382  -0.000000  -0.000000  -0.055264
    6  NA 1  S    0.227513  -0.009694  -0.000000  -0.000000  -0.437091
    7  NA 1  X    0.000000  -0.000000   0.010610  -0.000778  -0.000000
    8  NA 1  Y    0.000000  -0.000000   0.000778   0.010610  -0.000000
    9  NA 1  Z   -0.053783   0.028341  -0.000000  -0.000000  -0.019536
   10  NA 1  S    0.329226   0.044646  -0.000000  -0.000000   0.622800
   11  NA 1  X    0.000000  -0.000000   0.547232  -0.040129  -0.000000
   12  NA 1  Y    0.000000  -0.000000   0.040129   0.547232  -0.000000
   13  NA 1  Z   -0.027205   0.626516  -0.000000  -0.000000   0.785674
   14  NA 1 XX    0.005616   0.032809  -0.000000  -0.000000   0.076551
   15  NA 1 YY    0.005616   0.032809  -0.000000  -0.000000   0.076551
   16  NA 1 ZZ    0.017141   0.030904  -0.000000  -0.000000   0.073558
   17  NA 1 XY    0.000000  -0.000000  -0.000000  -0.000000  -0.000000
   18  NA 1 XZ    0.000000  -0.000000  -0.001454   0.000107  -0.000000
   19  NA 1 YZ    0.000000  -0.000000  -0.000107  -0.001454  -0.000000
   20  NA 2  S    0.025276  -0.016052  -0.000000  -0.000000  -0.005138
   21  NA 2  S   -0.152412   0.110434  -0.000000  -0.000000   0.004864
   22  NA 2  X    0.000000  -0.000000  -0.051075   0.003745  -0.000000
   23  NA 2  Y    0.000000  -0.000000  -0.003745  -0.051075  -0.000000
   24  NA 2  Z   -0.033338  -0.034382  -0.000000  -0.000000   0.055264
   25  NA 2  S    0.227513   0.009694  -0.000000  -0.000000  -0.437091
   26  NA 2  X    0.000000  -0.000000   0.010610  -0.000778  -0.000000
   27  NA 2  Y    0.000000  -0.000000   0.000778   0.010610  -0.000000
   28  NA 2  Z    0.053783   0.028341  -0.000000  -0.000000   0.019536
   29  NA 2  S    0.329226  -0.044646  -0.000000  -0.000000   0.622800
   30  NA 2  X    0.000000  -0.000000   0.547232  -0.040129  -0.000000
   31  NA 2  Y    0.000000  -0.000000   0.040129   0.547232  -0.000000
   32  NA 2  Z    0.027205   0.626516  -0.000000  -0.000000  -0.785674
   33  NA 2 XX    0.005616  -0.032809  -0.000000  -0.000000   0.076551
   34  NA 2 YY    0.005616  -0.032809  -0.000000  -0.000000   0.076551
   35  NA 2 ZZ    0.017141  -0.030904  -0.000000  -0.000000   0.073558
   36  NA 2 XY    0.000000  -0.000000  -0.000000  -0.000000  -0.000000
   37  NA 2 XZ    0.000000  -0.000000   0.001454  -0.000107  -0.000000
   38  NA 2 YZ    0.000000  -0.000000   0.000107   0.001454  -0.000000

                     16         17         18         19         20
                    0.0670     0.0670     0.0943     0.1223     0.1883
                     A          A          A          A          A   
    1  NA 1  S    0.000000  -0.000000   0.018849   0.018415   0.013492
    2  NA 1  S    0.000000  -0.000000  -0.143184   0.080064   0.177411
    3  NA 1  X   -0.001720   0.032405  -0.000000  -0.000000  -0.000000
    4  NA 1  Y    0.032405   0.001720  -0.000000  -0.000000  -0.000000
    5  NA 1  Z    0.000000  -0.000000  -0.021585   0.005132  -0.074289
    6  NA 1  S    0.000000  -0.000000   0.056714   2.727876   3.208898
    7  NA 1  X   -0.003681   0.069338  -0.000000  -0.000000  -0.000000
    8  NA 1  Y    0.069338   0.003681  -0.000000  -0.000000  -0.000000
    9  NA 1  Z    0.000000  -0.000000   0.196675  -0.038139   0.461591
   10  NA 1  S    0.000000  -0.000000   4.887623  -1.482666  -6.725903
   11  NA 1  X    0.064594  -1.216682  -0.000000  -0.000000  -0.000000
   12  NA 1  Y   -1.216682  -0.064594  -0.000000  -0.000000  -0.000000
   13  NA 1  Z    0.000000  -0.000000  -2.965361   0.445204   2.262073
   14  NA 1 XX    0.000000  -0.000000  -0.016152  -0.467825  -0.471591
   15  NA 1 YY    0.000000  -0.000000  -0.016152  -0.467825  -0.471591
   16  NA 1 ZZ    0.000000  -0.000000  -0.037007  -0.441078  -0.470028
   17  NA 1 XY    0.000000  -0.000000  -0.000000  -0.000000  -0.000000
   18  NA 1 XZ    0.000548  -0.010330  -0.000000  -0.000000  -0.000000
   19  NA 1 YZ   -0.010330  -0.000548  -0.000000  -0.000000  -0.000000
   20  NA 2  S    0.000000  -0.000000  -0.018849   0.018415  -0.013492
   21  NA 2  S    0.000000  -0.000000   0.143184   0.080064  -0.177411
   22  NA 2  X    0.001720  -0.032405  -0.000000  -0.000000  -0.000000
   23  NA 2  Y   -0.032405  -0.001720  -0.000000  -0.000000  -0.000000
   24  NA 2  Z    0.000000  -0.000000  -0.021585  -0.005132  -0.074289
   25  NA 2  S    0.000000  -0.000000  -0.056714   2.727876  -3.208898
   26  NA 2  X    0.003681  -0.069338  -0.000000  -0.000000  -0.000000
   27  NA 2  Y   -0.069338  -0.003681  -0.000000  -0.000000  -0.000000
   28  NA 2  Z    0.000000  -0.000000   0.196675   0.038139   0.461591
   29  NA 2  S    0.000000  -0.000000  -4.887623  -1.482666   6.725903
   30  NA 2  X   -0.064594   1.216682  -0.000000  -0.000000  -0.000000
   31  NA 2  Y    1.216682   0.064594  -0.000000  -0.000000  -0.000000
   32  NA 2  Z    0.000000  -0.000000  -2.965361  -0.445204   2.262073
   33  NA 2 XX    0.000000  -0.000000   0.016152  -0.467825   0.471591
   34  NA 2 YY    0.000000  -0.000000   0.016152  -0.467825   0.471591
   35  NA 2 ZZ    0.000000  -0.000000   0.037007  -0.441078   0.470028
   36  NA 2 XY    0.000000  -0.000000  -0.000000  -0.000000  -0.000000
   37  NA 2 XZ    0.000548  -0.010330  -0.000000  -0.000000  -0.000000
   38  NA 2 YZ   -0.010330  -0.000548  -0.000000  -0.000000  -0.000000

                     21         22         23         24         25
                    0.1978     0.2010     0.2010     0.2447     0.2447
                     A          A          A          A          A   
    1  NA 1  S   -0.005045   0.000000   0.000000   0.000000   0.000000
    2  NA 1  S    0.005457   0.000000   0.000000   0.000000   0.000000
    3  NA 1  X    0.000000  -0.144156  -0.013978  -0.116730  -0.104301
    4  NA 1  Y    0.000000   0.013978  -0.144156   0.104301  -0.116730
    5  NA 1  Z    0.158460   0.000000   0.000000   0.000000   0.000000
    6  NA 1  S   -0.544932   0.000000   0.000000   0.000000   0.000000
    7  NA 1  X    0.000000   0.914309   0.088659   0.782823   0.699472
    8  NA 1  Y    0.000000  -0.088659   0.914309  -0.699472   0.782823
    9  NA 1  Z   -0.857070   0.000000   0.000000   0.000000   0.000000
   10  NA 1  S    0.344717   0.000000   0.000000   0.000000   0.000000
   11  NA 1  X    0.000000  -0.565385  -0.054824  -0.668536  -0.597354
   12  NA 1  Y    0.000000   0.054824  -0.565385   0.597354  -0.668536
   13  NA 1  Z    0.739871   0.000000   0.000000   0.000000   0.000000
   14  NA 1 XX    0.135946   0.000000   0.000000   0.000000   0.000000
   15  NA 1 YY    0.135946   0.000000   0.000000   0.000000   0.000000
   16  NA 1 ZZ    0.082739   0.000000   0.000000   0.000000   0.000000
   17  NA 1 XY    0.000000   0.000000   0.000000   0.000000   0.000000
   18  NA 1 XZ    0.000000  -0.024504  -0.002376   0.048857   0.043655
   19  NA 1 YZ    0.000000   0.002376  -0.024504  -0.043655   0.048857
   20  NA 2  S   -0.005045   0.000000   0.000000   0.000000   0.000000
   21  NA 2  S    0.005457   0.000000   0.000000   0.000000   0.000000
   22  NA 2  X    0.000000  -0.144156  -0.013978   0.116730   0.104301
   23  NA 2  Y    0.000000   0.013978  -0.144156  -0.104301   0.116730
   24  NA 2  Z   -0.158460   0.000000   0.000000   0.000000   0.000000
   25  NA 2  S   -0.544932   0.000000   0.000000   0.000000   0.000000
   26  NA 2  X    0.000000   0.914309   0.088659  -0.782823  -0.699472
   27  NA 2  Y    0.000000  -0.088659   0.914309   0.699472  -0.782823
   28  NA 2  Z    0.857070   0.000000   0.000000   0.000000   0.000000
   29  NA 2  S    0.344717   0.000000   0.000000   0.000000   0.000000
   30  NA 2  X    0.000000  -0.565385  -0.054824   0.668536   0.597354
   31  NA 2  Y    0.000000   0.054824  -0.565385  -0.597354   0.668536
   32  NA 2  Z   -0.739871   0.000000   0.000000   0.000000   0.000000
   33  NA 2 XX    0.135946   0.000000   0.000000   0.000000   0.000000
   34  NA 2 YY    0.135946   0.000000   0.000000   0.000000   0.000000
   35  NA 2 ZZ    0.082739   0.000000   0.000000   0.000000   0.000000
   36  NA 2 XY    0.000000   0.000000   0.000000   0.000000   0.000000
   37  NA 2 XZ    0.000000   0.024504   0.002376   0.048857   0.043655
   38  NA 2 YZ    0.000000  -0.002376   0.024504  -0.043655   0.048857

                     26         27         28         29         30
                    0.3396     0.4307     0.4307     0.4646     0.4646
                     A          A          A          A          A   
    1  NA 1  S    0.014667  -0.000000  -0.000000   0.000000   0.000000
    2  NA 1  S    0.116719  -0.000000  -0.000000   0.000000   0.000000
    3  NA 1  X    0.000000   0.011376  -0.019149   0.000000   0.000000
    4  NA 1  Y    0.000000  -0.019149  -0.011376   0.000000   0.000000
    5  NA 1  Z    0.123195  -0.000000  -0.000000   0.000000   0.000000
    6  NA 1  S    2.318002  -0.000000  -0.000000   0.000000   0.000000
    7  NA 1  X    0.000000  -0.082825   0.139412   0.000000   0.000000
    8  NA 1  Y    0.000000   0.139412   0.082825   0.000000   0.000000
    9  NA 1  Z   -1.231503  -0.000000  -0.000000   0.000000   0.000000
   10  NA 1  S   -4.717448  -0.000000  -0.000000   0.000000   0.000000
   11  NA 1  X    0.000000   0.028592  -0.048127   0.000000   0.000000
   12  NA 1  Y    0.000000  -0.048127  -0.028592   0.000000   0.000000
   13  NA 1  Z    2.210562  -0.000000  -0.000000   0.000000   0.000000
   14  NA 1 XX   -0.127061  -0.000000  -0.000000  -0.599513   0.000000
   15  NA 1 YY   -0.127061  -0.000000  -0.000000   0.599513  -0.000000
   16  NA 1 ZZ   -0.385461  -0.000000  -0.000000   0.000000   0.000000
   17  NA 1 XY    0.000000  -0.000000  -0.000000   0.000000   0.692258
   18  NA 1 XZ    0.000000  -0.329562   0.554726   0.000000   0.000000
   19  NA 1 YZ    0.000000   0.554726   0.329562   0.000000   0.000000
   20  NA 2  S   -0.014667  -0.000000  -0.000000   0.000000   0.000000
   21  NA 2  S   -0.116719  -0.000000  -0.000000   0.000000   0.000000
   22  NA 2  X    0.000000   0.011376  -0.019149   0.000000   0.000000
   23  NA 2  Y    0.000000  -0.019149  -0.011376   0.000000   0.000000
   24  NA 2  Z    0.123195  -0.000000  -0.000000   0.000000   0.000000
   25  NA 2  S   -2.318002  -0.000000  -0.000000   0.000000   0.000000
   26  NA 2  X    0.000000  -0.082825   0.139412   0.000000   0.000000
   27  NA 2  Y    0.000000   0.139412   0.082825   0.000000   0.000000
   28  NA 2  Z   -1.231503  -0.000000  -0.000000   0.000000   0.000000
   29  NA 2  S    4.717448  -0.000000  -0.000000   0.000000   0.000000
   30  NA 2  X    0.000000   0.028592  -0.048127   0.000000   0.000000
   31  NA 2  Y    0.000000  -0.048127  -0.028592   0.000000   0.000000
   32  NA 2  Z    2.210562  -0.000000  -0.000000   0.000000   0.000000
   33  NA 2 XX    0.127061  -0.000000  -0.000000  -0.599513   0.000000
   34  NA 2 YY    0.127061  -0.000000  -0.000000   0.599513  -0.000000
   35  NA 2 ZZ    0.385461  -0.000000  -0.000000   0.000000   0.000000
   36  NA 2 XY    0.000000  -0.000000  -0.000000   0.000000   0.692258
   37  NA 2 XZ    0.000000   0.329562  -0.554726   0.000000   0.000000
   38  NA 2 YZ    0.000000  -0.554726  -0.329562   0.000000   0.000000

                     31         32         33         34         35
                    0.4911     0.5087     0.5087     0.6105     0.6114
                     A          A          A          A          A   
    1  NA 1  S    0.003734   0.000000   0.000000   0.006070  -0.000000
    2  NA 1  S    0.053611   0.000000   0.000000   0.067180  -0.000000
    3  NA 1  X    0.000000   0.000000   0.000000   0.000000   0.006898
    4  NA 1  Y    0.000000   0.000000   0.000000   0.000000   0.032612
    5  NA 1  Z    0.009114   0.000000   0.000000   0.032806  -0.000000
    6  NA 1  S    2.144179   0.000000   0.000000   4.702212  -0.000000
    7  NA 1  X    0.000000   0.000000   0.000000   0.000000  -0.050013
    8  NA 1  Y    0.000000   0.000000   0.000000   0.000000  -0.236452
    9  NA 1  Z   -0.161756   0.000000   0.000000   0.050915  -0.000000
   10  NA 1  S   -0.654377   0.000000   0.000000  -1.203529  -0.000000
   11  NA 1  X    0.000000   0.000000   0.000000   0.000000  -0.007710
   12  NA 1  Y    0.000000   0.000000   0.000000   0.000000  -0.036452
   13  NA 1  Z    0.273698   0.000000   0.000000  -0.012638  -0.000000
   14  NA 1 XX   -0.365274  -0.000000   0.626097  -1.909319  -0.000000
   15  NA 1 YY   -0.365274   0.000000  -0.626097  -1.909319  -0.000000
   16  NA 1 ZZ   -1.266895   0.000000   0.000000  -1.449370  -0.000000
   17  NA 1 XY    0.000000   0.722954   0.000000   0.000000  -0.000000
   18  NA 1 XZ    0.000000   0.000000   0.000000   0.000000   0.171307
   19  NA 1 YZ    0.000000   0.000000   0.000000   0.000000   0.809911
   20  NA 2  S    0.003734   0.000000   0.000000   0.006070  -0.000000
   21  NA 2  S    0.053611   0.000000   0.000000   0.067180  -0.000000
   22  NA 2  X    0.000000   0.000000   0.000000   0.000000  -0.006898
   23  NA 2  Y    0.000000   0.000000   0.000000   0.000000  -0.032612
   24  NA 2  Z   -0.009114   0.000000   0.000000  -0.032806  -0.000000
   25  NA 2  S    2.144179   0.000000   0.000000   4.702212  -0.000000
   26  NA 2  X    0.000000   0.000000   0.000000   0.000000   0.050013
   27  NA 2  Y    0.000000   0.000000   0.000000   0.000000   0.236452
   28  NA 2  Z    0.161756   0.000000   0.000000  -0.050915  -0.000000
   29  NA 2  S   -0.654377   0.000000   0.000000  -1.203529  -0.000000
   30  NA 2  X    0.000000   0.000000   0.000000   0.000000   0.007710
   31  NA 2  Y    0.000000   0.000000   0.000000   0.000000   0.036452
   32  NA 2  Z   -0.273698   0.000000   0.000000   0.012638  -0.000000
   33  NA 2 XX   -0.365274   0.000000  -0.626097  -1.909319  -0.000000
   34  NA 2 YY   -0.365274  -0.000000   0.626097  -1.909319  -0.000000
   35  NA 2 ZZ   -1.266895   0.000000   0.000000  -1.449370  -0.000000
   36  NA 2 XY    0.000000  -0.722954  -0.000000   0.000000  -0.000000
   37  NA 2 XZ    0.000000   0.000000   0.000000   0.000000   0.171307
   38  NA 2 YZ    0.000000   0.000000   0.000000   0.000000   0.809911

                     36         37         38
                    0.6114     0.6242     0.8552
                     A          A          A   
    1  NA 1  S   -0.000000  -0.001603  -0.016345
    2  NA 1  S   -0.000000  -0.299229  -0.162523
    3  NA 1  X    0.032612  -0.000000  -0.000000
    4  NA 1  Y   -0.006898  -0.000000  -0.000000
    5  NA 1  Z   -0.000000   0.004613  -0.098546
    6  NA 1  S   -0.000000  -7.100531  -4.423030
    7  NA 1  X   -0.236452  -0.000000  -0.000000
    8  NA 1  Y    0.050013  -0.000000  -0.000000
    9  NA 1  Z   -0.000000   0.241262   1.777690
   10  NA 1  S   -0.000000   5.154829   2.771372
   11  NA 1  X   -0.036452  -0.000000  -0.000000
   12  NA 1  Y    0.007710  -0.000000  -0.000000
   13  NA 1  Z   -0.000000  -1.411387  -0.957320
   14  NA 1 XX   -0.000000   2.035181   1.482561
   15  NA 1 YY   -0.000000   2.035181   1.482561
   16  NA 1 ZZ   -0.000000   2.451463  -0.247359
   17  NA 1 XY   -0.000000  -0.000000  -0.000000
   18  NA 1 XZ    0.809911  -0.000000  -0.000000
   19  NA 1 YZ   -0.171307  -0.000000  -0.000000
   20  NA 2  S   -0.000000   0.001603   0.016345
   21  NA 2  S   -0.000000   0.299229   0.162523
   22  NA 2  X   -0.032612  -0.000000  -0.000000
   23  NA 2  Y    0.006898  -0.000000  -0.000000
   24  NA 2  Z   -0.000000   0.004613  -0.098546
   25  NA 2  S   -0.000000   7.100531   4.423030
   26  NA 2  X    0.236452  -0.000000  -0.000000
   27  NA 2  Y   -0.050013  -0.000000  -0.000000
   28  NA 2  Z   -0.000000   0.241262   1.777690
   29  NA 2  S   -0.000000  -5.154829  -2.771372
   30  NA 2  X    0.036452  -0.000000  -0.000000
   31  NA 2  Y   -0.007710  -0.000000  -0.000000
   32  NA 2  Z   -0.000000  -1.411387  -0.957320
   33  NA 2 XX   -0.000000  -2.035181  -1.482561
   34  NA 2 YY   -0.000000  -2.035181  -1.482561
   35  NA 2 ZZ   -0.000000  -2.451463   0.247359
   36  NA 2 XY   -0.000000  -0.000000  -0.000000
   37  NA 2 XZ    0.809911  -0.000000  -0.000000
   38  NA 2 YZ   -0.171307  -0.000000  -0.000000

 LZ VALUE ANALYSIS FOR THE MOS
 ----------------------------------------
 MO     1 (    1) HAS LZ(WEIGHT)= 0.00(100.0%) 
 MO     2 (    2) HAS LZ(WEIGHT)= 0.00(100.0%) 
 MO     3 (    3) HAS LZ(WEIGHT)= 0.00(100.0%) 
 MO     4 (    4) HAS LZ(WEIGHT)= 0.00(100.0%) 
 MO     5 (    5) HAS LZ(WEIGHT)= 0.00(100.0%) 
 MO     6 (    6) HAS LZ(WEIGHT)=-1.00( 50.0%)  1.00( 50.0%) 
 MO     7 (    6) HAS LZ(WEIGHT)=-1.00( 50.0%)  1.00( 50.0%) 
 MO     8 (    7) HAS LZ(WEIGHT)=-1.00( 50.0%)  1.00( 50.0%) 
 MO     9 (    7) HAS LZ(WEIGHT)=-1.00( 50.0%)  1.00( 50.0%) 
 MO    10 (    8) HAS LZ(WEIGHT)= 0.00(100.0%) 
 MO    11 (    9) HAS LZ(WEIGHT)= 0.00(100.0%) 
 MO    12 (   10) HAS LZ(WEIGHT)= 0.00(100.0%) 
 MO    13 (   11) HAS LZ(WEIGHT)=-1.00( 50.0%)  1.00( 50.0%) 
 MO    14 (   11) HAS LZ(WEIGHT)=-1.00( 50.0%)  1.00( 50.0%) 
 MO    15 (   12) HAS LZ(WEIGHT)= 0.00(100.0%) 
 MO    16 (   13) HAS LZ(WEIGHT)=-1.00( 50.0%)  1.00( 50.0%) 
 MO    17 (   13) HAS LZ(WEIGHT)=-1.00( 50.0%)  1.00( 50.0%) 
 MO    18 (   14) HAS LZ(WEIGHT)= 0.00(100.0%) 
 MO    19 (   15) HAS LZ(WEIGHT)= 0.00(100.0%) 
 MO    20 (   16) HAS LZ(WEIGHT)= 0.00(100.0%) 
 MO    21 (   17) HAS LZ(WEIGHT)= 0.00(100.0%) 
 MO    22 (   18) HAS LZ(WEIGHT)=-1.00( 50.0%)  1.00( 50.0%) 
 MO    23 (   18) HAS LZ(WEIGHT)=-1.00( 50.0%)  1.00( 50.0%) 
 MO    24 (   19) HAS LZ(WEIGHT)=-1.00( 50.0%)  1.00( 50.0%) 
 MO    25 (   19) HAS LZ(WEIGHT)=-1.00( 50.0%)  1.00( 50.0%) 
 MO    26 (   20) HAS LZ(WEIGHT)= 0.00(100.0%) 
 MO    27 (   21) HAS LZ(WEIGHT)=-1.00( 50.0%)  1.00( 50.0%) 
 MO    28 (   21) HAS LZ(WEIGHT)=-1.00( 50.0%)  1.00( 50.0%) 
 MO    29 (   22) HAS LZ(WEIGHT)=-2.00( 50.0%)  2.00( 50.0%) 
 MO    30 (   22) HAS LZ(WEIGHT)=-2.00( 50.0%)  2.00( 50.0%) 
 MO    31 (   23) HAS LZ(WEIGHT)= 0.00(100.0%) 
 MO    32 (   24) HAS LZ(WEIGHT)=-2.00( 50.0%)  2.00( 50.0%) 
 MO    33 (   24) HAS LZ(WEIGHT)=-2.00( 50.0%)  2.00( 50.0%) 
 MO    34 (   25) HAS LZ(WEIGHT)= 0.00(100.0%) 
 MO    35 (   26) HAS LZ(WEIGHT)=-1.00( 50.0%)  1.00( 50.0%) 
 MO    36 (   26) HAS LZ(WEIGHT)=-1.00( 50.0%)  1.00( 50.0%) 
 MO    37 (   27) HAS LZ(WEIGHT)= 0.00(100.0%) 
 MO    38 (   28) HAS LZ(WEIGHT)= 0.00(100.0%) 

  ----- BETA SET ----- 

          ------------
          EIGENVECTORS
          ------------

                      1          2          3          4          5
                  -40.4758   -40.4758    -2.7900    -2.7899    -1.5109
                     A          A          A          A          A   
    1  NA 1  S    0.705628   0.705631  -0.173798   0.173851   0.001018
    2  NA 1  S    0.006258   0.006246   0.726926  -0.726666  -0.004053
    3  NA 1  X    0.000000   0.000000  -0.000000   0.000000  -0.000000
    4  NA 1  Y    0.000000   0.000000  -0.000000   0.000000  -0.000000
    5  NA 1  Z    0.000002   0.000015   0.004488  -0.004364   0.705020
    6  NA 1  S   -0.000754  -0.001339   0.001681   0.006513   0.003352
    7  NA 1  X    0.000000   0.000000  -0.000000   0.000000  -0.000000
    8  NA 1  Y    0.000000   0.000000  -0.000000   0.000000  -0.000000
    9  NA 1  Z    0.000613  -0.000058   0.000161  -0.004235   0.008431
   10  NA 1  S   -0.000346   0.000492   0.000619  -0.011863  -0.001569
   11  NA 1  X    0.000000   0.000000  -0.000000   0.000000  -0.000000
   12  NA 1  Y    0.000000   0.000000  -0.000000   0.000000  -0.000000
   13  NA 1  Z    0.000262   0.000033  -0.000248   0.004966  -0.001793
   14  NA 1 XX   -0.000067   0.000126  -0.002004  -0.000152  -0.000905
   15  NA 1 YY   -0.000067   0.000126  -0.002004  -0.000152  -0.000905
   16  NA 1 ZZ   -0.000596   0.000125  -0.001582   0.002477  -0.000590
   17  NA 1 XY    0.000000   0.000000  -0.000000   0.000000  -0.000000
   18  NA 1 XZ    0.000000   0.000000  -0.000000   0.000000  -0.000000
   19  NA 1 YZ    0.000000   0.000000  -0.000000   0.000000  -0.000000
   20  NA 2  S   -0.705628   0.705631  -0.173798  -0.173851   0.001018
   21  NA 2  S   -0.006258   0.006246   0.726926   0.726666  -0.004053
   22  NA 2  X    0.000000   0.000000  -0.000000   0.000000  -0.000000
   23  NA 2  Y    0.000000   0.000000  -0.000000   0.000000  -0.000000
   24  NA 2  Z    0.000002  -0.000015  -0.004488  -0.004364  -0.705020
   25  NA 2  S    0.000754  -0.001339   0.001681  -0.006513   0.003352
   26  NA 2  X    0.000000   0.000000  -0.000000   0.000000  -0.000000
   27  NA 2  Y    0.000000   0.000000  -0.000000   0.000000  -0.000000
   28  NA 2  Z    0.000613   0.000058  -0.000161  -0.004235  -0.008431
   29  NA 2  S    0.000346   0.000492   0.000619   0.011863  -0.001569
   30  NA 2  X    0.000000   0.000000  -0.000000   0.000000  -0.000000
   31  NA 2  Y    0.000000   0.000000  -0.000000   0.000000  -0.000000
   32  NA 2  Z    0.000262  -0.000033   0.000248   0.004966   0.001793
   33  NA 2 XX    0.000067   0.000126  -0.002004   0.000152  -0.000905
   34  NA 2 YY    0.000067   0.000126  -0.002004   0.000152  -0.000905
   35  NA 2 ZZ    0.000596   0.000125  -0.001582  -0.002477  -0.000590
   36  NA 2 XY    0.000000   0.000000  -0.000000   0.000000  -0.000000
   37  NA 2 XZ    0.000000   0.000000  -0.000000   0.000000  -0.000000
   38  NA 2 YZ    0.000000   0.000000  -0.000000   0.000000  -0.000000

                      6          7          8          9         10
                   -1.5100    -1.5100    -1.5098    -1.5098    -1.5095
                     A          A          A          A          A   
    1  NA 1  S   -0.000000   0.000000   0.000000  -0.000000   0.001319
    2  NA 1  S   -0.000000   0.000000   0.000000  -0.000000  -0.005624
    3  NA 1  X    0.691083  -0.142456  -0.347892  -0.614195   0.000000
    4  NA 1  Y    0.142456   0.691083  -0.614195   0.347892   0.000000
    5  NA 1  Z   -0.000000   0.000000   0.000000  -0.000000   0.706533
    6  NA 1  S   -0.000000   0.000000   0.000000  -0.000000   0.003115
    7  NA 1  X    0.007492  -0.001544  -0.003570  -0.006303   0.000000
    8  NA 1  Y    0.001544   0.007492  -0.006303   0.003570   0.000000
    9  NA 1  Z   -0.000000   0.000000   0.000000  -0.000000   0.002159
   10  NA 1  S   -0.000000   0.000000   0.000000  -0.000000   0.001491
   11  NA 1  X   -0.001006   0.000207   0.000810   0.001430   0.000000
   12  NA 1  Y   -0.000207  -0.001006   0.001430  -0.000810   0.000000
   13  NA 1  Z   -0.000000   0.000000   0.000000  -0.000000  -0.001167
   14  NA 1 XX   -0.000000   0.000000   0.000000  -0.000000  -0.001154
   15  NA 1 YY   -0.000000   0.000000   0.000000  -0.000000  -0.001154
   16  NA 1 ZZ   -0.000000   0.000000   0.000000  -0.000000   0.005624
   17  NA 1 XY   -0.000000   0.000000   0.000000  -0.000000   0.000000
   18  NA 1 XZ    0.000730  -0.000151  -0.000713  -0.001259   0.000000
   19  NA 1 YZ    0.000151   0.000730  -0.001259   0.000713   0.000000
   20  NA 2  S   -0.000000   0.000000   0.000000  -0.000000  -0.001319
   21  NA 2  S   -0.000000   0.000000   0.000000  -0.000000   0.005624
   22  NA 2  X    0.691083  -0.142456   0.347892   0.614195   0.000000
   23  NA 2  Y    0.142456   0.691083   0.614195  -0.347892   0.000000
   24  NA 2  Z   -0.000000   0.000000   0.000000  -0.000000   0.706533
   25  NA 2  S   -0.000000   0.000000   0.000000  -0.000000  -0.003115
   26  NA 2  X    0.007492  -0.001544   0.003570   0.006303   0.000000
   27  NA 2  Y    0.001544   0.007492   0.006303  -0.003570   0.000000
   28  NA 2  Z   -0.000000   0.000000   0.000000  -0.000000   0.002159
   29  NA 2  S   -0.000000   0.000000   0.000000  -0.000000  -0.001491
   30  NA 2  X   -0.001006   0.000207  -0.000810  -0.001430   0.000000
   31  NA 2  Y   -0.000207  -0.001006  -0.001430   0.000810   0.000000
   32  NA 2  Z   -0.000000   0.000000   0.000000  -0.000000  -0.001167
   33  NA 2 XX   -0.000000   0.000000   0.000000  -0.000000   0.001154
   34  NA 2 YY   -0.000000   0.000000   0.000000  -0.000000   0.001154
   35  NA 2 ZZ   -0.000000   0.000000   0.000000  -0.000000  -0.005624
   36  NA 2 XY   -0.000000   0.000000   0.000000  -0.000000   0.000000
   37  NA 2 XZ   -0.000730   0.000151  -0.000713  -0.001259   0.000000
   38  NA 2 YZ   -0.000151  -0.000730  -0.001259   0.000713   0.000000

                     11         12         13         14         15
                   -0.1640     0.0058     0.0344     0.0344     0.0479
                     A          A          A          A          A   
    1  NA 1  S    0.025276   0.016052  -0.000000  -0.000000  -0.005138
    2  NA 1  S   -0.152412  -0.110434  -0.000000  -0.000000   0.004864
    3  NA 1  X    0.000000  -0.000000  -0.051075   0.003745  -0.000000
    4  NA 1  Y    0.000000  -0.000000  -0.003745  -0.051075  -0.000000
    5  NA 1  Z    0.033338  -0.034382  -0.000000  -0.000000  -0.055264
    6  NA 1  S    0.227513  -0.009694  -0.000000  -0.000000  -0.437091
    7  NA 1  X    0.000000  -0.000000   0.010610  -0.000778  -0.000000
    8  NA 1  Y    0.000000  -0.000000   0.000778   0.010610  -0.000000
    9  NA 1  Z   -0.053783   0.028341  -0.000000  -0.000000  -0.019536
   10  NA 1  S    0.329226   0.044646  -0.000000  -0.000000   0.622800
   11  NA 1  X    0.000000  -0.000000   0.547232  -0.040129  -0.000000
   12  NA 1  Y    0.000000  -0.000000   0.040129   0.547232  -0.000000
   13  NA 1  Z   -0.027205   0.626516  -0.000000  -0.000000   0.785674
   14  NA 1 XX    0.005616   0.032809  -0.000000  -0.000000   0.076551
   15  NA 1 YY    0.005616   0.032809  -0.000000  -0.000000   0.076551
   16  NA 1 ZZ    0.017141   0.030904  -0.000000  -0.000000   0.073558
   17  NA 1 XY    0.000000  -0.000000  -0.000000  -0.000000  -0.000000
   18  NA 1 XZ    0.000000  -0.000000  -0.001454   0.000107  -0.000000
   19  NA 1 YZ    0.000000  -0.000000  -0.000107  -0.001454  -0.000000
   20  NA 2  S    0.025276  -0.016052  -0.000000  -0.000000  -0.005138
   21  NA 2  S   -0.152412   0.110434  -0.000000  -0.000000   0.004864
   22  NA 2  X    0.000000  -0.000000  -0.051075   0.003745  -0.000000
   23  NA 2  Y    0.000000  -0.000000  -0.003745  -0.051075  -0.000000
   24  NA 2  Z   -0.033338  -0.034382  -0.000000  -0.000000   0.055264
   25  NA 2  S    0.227513   0.009694  -0.000000  -0.000000  -0.437091
   26  NA 2  X    0.000000  -0.000000   0.010610  -0.000778  -0.000000
   27  NA 2  Y    0.000000  -0.000000   0.000778   0.010610  -0.000000
   28  NA 2  Z    0.053783   0.028341  -0.000000  -0.000000   0.019536
   29  NA 2  S    0.329226  -0.044646  -0.000000  -0.000000   0.622800
   30  NA 2  X    0.000000  -0.000000   0.547232  -0.040129  -0.000000
   31  NA 2  Y    0.000000  -0.000000   0.040129   0.547232  -0.000000
   32  NA 2  Z    0.027205   0.626516  -0.000000  -0.000000  -0.785674
   33  NA 2 XX    0.005616  -0.032809  -0.000000  -0.000000   0.076551
   34  NA 2 YY    0.005616  -0.032809  -0.000000  -0.000000   0.076551
   35  NA 2 ZZ    0.017141  -0.030904  -0.000000  -0.000000   0.073558
   36  NA 2 XY    0.000000  -0.000000  -0.000000  -0.000000  -0.000000
   37  NA 2 XZ    0.000000  -0.000000   0.001454  -0.000107  -0.000000
   38  NA 2 YZ    0.000000  -0.000000   0.000107   0.001454  -0.000000

                     16         17         18         19         20
                    0.0670     0.0670     0.0943     0.1223     0.1883
                     A          A          A          A          A   
    1  NA 1  S    0.000000  -0.000000   0.018849   0.018415   0.013492
    2  NA 1  S    0.000000  -0.000000  -0.143184   0.080064   0.177411
    3  NA 1  X   -0.001720   0.032405  -0.000000  -0.000000  -0.000000
    4  NA 1  Y    0.032405   0.001720  -0.000000  -0.000000  -0.000000
    5  NA 1  Z    0.000000  -0.000000  -0.021585   0.005132  -0.074289
    6  NA 1  S    0.000000  -0.000000   0.056714   2.727876   3.208898
    7  NA 1  X   -0.003681   0.069338  -0.000000  -0.000000  -0.000000
    8  NA 1  Y    0.069338   0.003681  -0.000000  -0.000000  -0.000000
    9  NA 1  Z    0.000000  -0.000000   0.196675  -0.038139   0.461591
   10  NA 1  S    0.000000  -0.000000   4.887623  -1.482666  -6.725903
   11  NA 1  X    0.064594  -1.216682  -0.000000  -0.000000  -0.000000
   12  NA 1  Y   -1.216682  -0.064594  -0.000000  -0.000000  -0.000000
   13  NA 1  Z    0.000000  -0.000000  -2.965361   0.445204   2.262073
   14  NA 1 XX    0.000000  -0.000000  -0.016152  -0.467825  -0.471591
   15  NA 1 YY    0.000000  -0.000000  -0.016152  -0.467825  -0.471591
   16  NA 1 ZZ    0.000000  -0.000000  -0.037007  -0.441078  -0.470028
   17  NA 1 XY    0.000000  -0.000000  -0.000000  -0.000000  -0.000000
   18  NA 1 XZ    0.000548  -0.010330  -0.000000  -0.000000  -0.000000
   19  NA 1 YZ   -0.010330  -0.000548  -0.000000  -0.000000  -0.000000
   20  NA 2  S    0.000000  -0.000000  -0.018849   0.018415  -0.013492
   21  NA 2  S    0.000000  -0.000000   0.143184   0.080064  -0.177411
   22  NA 2  X    0.001720  -0.032405  -0.000000  -0.000000  -0.000000
   23  NA 2  Y   -0.032405  -0.001720  -0.000000  -0.000000  -0.000000
   24  NA 2  Z    0.000000  -0.000000  -0.021585  -0.005132  -0.074289
   25  NA 2  S    0.000000  -0.000000  -0.056714   2.727876  -3.208898
   26  NA 2  X    0.003681  -0.069338  -0.000000  -0.000000  -0.000000
   27  NA 2  Y   -0.069338  -0.003681  -0.000000  -0.000000  -0.000000
   28  NA 2  Z    0.000000  -0.000000   0.196675   0.038139   0.461591
   29  NA 2  S    0.000000  -0.000000  -4.887623  -1.482666   6.725903
   30  NA 2  X   -0.064594   1.216682  -0.000000  -0.000000  -0.000000
   31  NA 2  Y    1.216682   0.064594  -0.000000  -0.000000  -0.000000
   32  NA 2  Z    0.000000  -0.000000  -2.965361  -0.445204   2.262073
   33  NA 2 XX    0.000000  -0.000000   0.016152  -0.467825   0.471591
   34  NA 2 YY    0.000000  -0.000000   0.016152  -0.467825   0.471591
   35  NA 2 ZZ    0.000000  -0.000000   0.037007  -0.441078   0.470028
   36  NA 2 XY    0.000000  -0.000000  -0.000000  -0.000000  -0.000000
   37  NA 2 XZ    0.000548  -0.010330  -0.000000  -0.000000  -0.000000
   38  NA 2 YZ   -0.010330  -0.000548  -0.000000  -0.000000  -0.000000

                     21         22         23         24         25
                    0.1978     0.2010     0.2010     0.2447     0.2447
                     A          A          A          A          A   
    1  NA 1  S   -0.005045   0.000000   0.000000   0.000000   0.000000
    2  NA 1  S    0.005457   0.000000   0.000000   0.000000   0.000000
    3  NA 1  X    0.000000  -0.144156  -0.013978  -0.116730  -0.104301
    4  NA 1  Y    0.000000   0.013978  -0.144156   0.104301  -0.116730
    5  NA 1  Z    0.158460   0.000000   0.000000   0.000000   0.000000
    6  NA 1  S   -0.544932   0.000000   0.000000   0.000000   0.000000
    7  NA 1  X    0.000000   0.914309   0.088659   0.782823   0.699472
    8  NA 1  Y    0.000000  -0.088659   0.914309  -0.699472   0.782823
    9  NA 1  Z   -0.857070   0.000000   0.000000   0.000000   0.000000
   10  NA 1  S    0.344717   0.000000   0.000000   0.000000   0.000000
   11  NA 1  X    0.000000  -0.565385  -0.054824  -0.668536  -0.597354
   12  NA 1  Y    0.000000   0.054824  -0.565385   0.597354  -0.668536
   13  NA 1  Z    0.739871   0.000000   0.000000   0.000000   0.000000
   14  NA 1 XX    0.135946   0.000000   0.000000   0.000000   0.000000
   15  NA 1 YY    0.135946   0.000000   0.000000   0.000000   0.000000
   16  NA 1 ZZ    0.082739   0.000000   0.000000   0.000000   0.000000
   17  NA 1 XY    0.000000   0.000000   0.000000   0.000000   0.000000
   18  NA 1 XZ    0.000000  -0.024504  -0.002376   0.048857   0.043655
   19  NA 1 YZ    0.000000   0.002376  -0.024504  -0.043655   0.048857
   20  NA 2  S   -0.005045   0.000000   0.000000   0.000000   0.000000
   21  NA 2  S    0.005457   0.000000   0.000000   0.000000   0.000000
   22  NA 2  X    0.000000  -0.144156  -0.013978   0.116730   0.104301
   23  NA 2  Y    0.000000   0.013978  -0.144156  -0.104301   0.116730
   24  NA 2  Z   -0.158460   0.000000   0.000000   0.000000   0.000000
   25  NA 2  S   -0.544932   0.000000   0.000000   0.000000   0.000000
   26  NA 2  X    0.000000   0.914309   0.088659  -0.782823  -0.699472
   27  NA 2  Y    0.000000  -0.088659   0.914309   0.699472  -0.782823
   28  NA 2  Z    0.857070   0.000000   0.000000   0.000000   0.000000
   29  NA 2  S    0.344717   0.000000   0.000000   0.000000   0.000000
   30  NA 2  X    0.000000  -0.565385  -0.054824   0.668536   0.597354
   31  NA 2  Y    0.000000   0.054824  -0.565385  -0.597354   0.668536
   32  NA 2  Z   -0.739871   0.000000   0.000000   0.000000   0.000000
   33  NA 2 XX    0.135946   0.000000   0.000000   0.000000   0.000000
   34  NA 2 YY    0.135946   0.000000   0.000000   0.000000   0.000000
   35  NA 2 ZZ    0.082739   0.000000   0.000000   0.000000   0.000000
   36  NA 2 XY    0.000000   0.000000   0.000000   0.000000   0.000000
   37  NA 2 XZ    0.000000   0.024504   0.002376   0.048857   0.043655
   38  NA 2 YZ    0.000000  -0.002376   0.024504  -0.043655   0.048857

                     26         27         28         29         30
                    0.3396     0.4307     0.4307     0.4646     0.4646
                     A          A          A          A          A   
    1  NA 1  S    0.014667  -0.000000  -0.000000   0.000000   0.000000
    2  NA 1  S    0.116719  -0.000000  -0.000000   0.000000   0.000000
    3  NA 1  X    0.000000   0.011376  -0.019149   0.000000   0.000000
    4  NA 1  Y    0.000000  -0.019149  -0.011376   0.000000   0.000000
    5  NA 1  Z    0.123195  -0.000000  -0.000000   0.000000   0.000000
    6  NA 1  S    2.318002  -0.000000  -0.000000   0.000000   0.000000
    7  NA 1  X    0.000000  -0.082825   0.139412   0.000000   0.000000
    8  NA 1  Y    0.000000   0.139412   0.082825   0.000000   0.000000
    9  NA 1  Z   -1.231503  -0.000000  -0.000000   0.000000   0.000000
   10  NA 1  S   -4.717448  -0.000000  -0.000000   0.000000   0.000000
   11  NA 1  X    0.000000   0.028592  -0.048127   0.000000   0.000000
   12  NA 1  Y    0.000000  -0.048127  -0.028592   0.000000   0.000000
   13  NA 1  Z    2.210562  -0.000000  -0.000000   0.000000   0.000000
   14  NA 1 XX   -0.127061  -0.000000  -0.000000  -0.599513   0.000000
   15  NA 1 YY   -0.127061  -0.000000  -0.000000   0.599513  -0.000000
   16  NA 1 ZZ   -0.385461  -0.000000  -0.000000   0.000000   0.000000
   17  NA 1 XY    0.000000  -0.000000  -0.000000   0.000000   0.692258
   18  NA 1 XZ    0.000000  -0.329562   0.554726   0.000000   0.000000
   19  NA 1 YZ    0.000000   0.554726   0.329562   0.000000   0.000000
   20  NA 2  S   -0.014667  -0.000000  -0.000000   0.000000   0.000000
   21  NA 2  S   -0.116719  -0.000000  -0.000000   0.000000   0.000000
   22  NA 2  X    0.000000   0.011376  -0.019149   0.000000   0.000000
   23  NA 2  Y    0.000000  -0.019149  -0.011376   0.000000   0.000000
   24  NA 2  Z    0.123195  -0.000000  -0.000000   0.000000   0.000000
   25  NA 2  S   -2.318002  -0.000000  -0.000000   0.000000   0.000000
   26  NA 2  X    0.000000  -0.082825   0.139412   0.000000   0.000000
   27  NA 2  Y    0.000000   0.139412   0.082825   0.000000   0.000000
   28  NA 2  Z   -1.231503  -0.000000  -0.000000   0.000000   0.000000
   29  NA 2  S    4.717448  -0.000000  -0.000000   0.000000   0.000000
   30  NA 2  X    0.000000   0.028592  -0.048127   0.000000   0.000000
   31  NA 2  Y    0.000000  -0.048127  -0.028592   0.000000   0.000000
   32  NA 2  Z    2.210562  -0.000000  -0.000000   0.000000   0.000000
   33  NA 2 XX    0.127061  -0.000000  -0.000000  -0.599513   0.000000
   34  NA 2 YY    0.127061  -0.000000  -0.000000   0.599513  -0.000000
   35  NA 2 ZZ    0.385461  -0.000000  -0.000000   0.000000   0.000000
   36  NA 2 XY    0.000000  -0.000000  -0.000000   0.000000   0.692258
   37  NA 2 XZ    0.000000   0.329562  -0.554726   0.000000   0.000000
   38  NA 2 YZ    0.000000  -0.554726  -0.329562   0.000000   0.000000

                     31         32         33         34         35
                    0.4911     0.5087     0.5087     0.6105     0.6114
                     A          A          A          A          A   
    1  NA 1  S    0.003734   0.000000   0.000000   0.006070  -0.000000
    2  NA 1  S    0.053611   0.000000   0.000000   0.067180  -0.000000
    3  NA 1  X    0.000000   0.000000   0.000000   0.000000   0.006898
    4  NA 1  Y    0.000000   0.000000   0.000000   0.000000   0.032612
    5  NA 1  Z    0.009114   0.000000   0.000000   0.032806  -0.000000
    6  NA 1  S    2.144179   0.000000   0.000000   4.702212  -0.000000
    7  NA 1  X    0.000000   0.000000   0.000000   0.000000  -0.050013
    8  NA 1  Y    0.000000   0.000000   0.000000   0.000000  -0.236452
    9  NA 1  Z   -0.161756   0.000000   0.000000   0.050915  -0.000000
   10  NA 1  S   -0.654377   0.000000   0.000000  -1.203529  -0.000000
   11  NA 1  X    0.000000   0.000000   0.000000   0.000000  -0.007710
   12  NA 1  Y    0.000000   0.000000   0.000000   0.000000  -0.036452
   13  NA 1  Z    0.273698   0.000000   0.000000  -0.012638  -0.000000
   14  NA 1 XX   -0.365274  -0.000000   0.626097  -1.909319  -0.000000
   15  NA 1 YY   -0.365274   0.000000  -0.626097  -1.909319  -0.000000
   16  NA 1 ZZ   -1.266895   0.000000   0.000000  -1.449370  -0.000000
   17  NA 1 XY    0.000000   0.722954   0.000000   0.000000  -0.000000
   18  NA 1 XZ    0.000000   0.000000   0.000000   0.000000   0.171307
   19  NA 1 YZ    0.000000   0.000000   0.000000   0.000000   0.809911
   20  NA 2  S    0.003734   0.000000   0.000000   0.006070  -0.000000
   21  NA 2  S    0.053611   0.000000   0.000000   0.067180  -0.000000
   22  NA 2  X    0.000000   0.000000   0.000000   0.000000  -0.006898
   23  NA 2  Y    0.000000   0.000000   0.000000   0.000000  -0.032612
   24  NA 2  Z   -0.009114   0.000000   0.000000  -0.032806  -0.000000
   25  NA 2  S    2.144179   0.000000   0.000000   4.702212  -0.000000
   26  NA 2  X    0.000000   0.000000   0.000000   0.000000   0.050013
   27  NA 2  Y    0.000000   0.000000   0.000000   0.000000   0.236452
   28  NA 2  Z    0.161756   0.000000   0.000000  -0.050915  -0.000000
   29  NA 2  S   -0.654377   0.000000   0.000000  -1.203529  -0.000000
   30  NA 2  X    0.000000   0.000000   0.000000   0.000000   0.007710
   31  NA 2  Y    0.000000   0.000000   0.000000   0.000000   0.036452
   32  NA 2  Z   -0.273698   0.000000   0.000000   0.012638  -0.000000
   33  NA 2 XX   -0.365274   0.000000  -0.626097  -1.909319  -0.000000
   34  NA 2 YY   -0.365274  -0.000000   0.626097  -1.909319  -0.000000
   35  NA 2 ZZ   -1.266895   0.000000   0.000000  -1.449370  -0.000000
   36  NA 2 XY    0.000000  -0.722954  -0.000000   0.000000  -0.000000
   37  NA 2 XZ    0.000000   0.000000   0.000000   0.000000   0.171307
   38  NA 2 YZ    0.000000   0.000000   0.000000   0.000000   0.809911

                     36         37         38
                    0.6114     0.6242     0.8552
                     A          A          A   
    1  NA 1  S   -0.000000  -0.001603  -0.016345
    2  NA 1  S   -0.000000  -0.299229  -0.162523
    3  NA 1  X    0.032612  -0.000000  -0.000000
    4  NA 1  Y   -0.006898  -0.000000  -0.000000
    5  NA 1  Z   -0.000000   0.004613  -0.098546
    6  NA 1  S   -0.000000  -7.100531  -4.423030
    7  NA 1  X   -0.236452  -0.000000  -0.000000
    8  NA 1  Y    0.050013  -0.000000  -0.000000
    9  NA 1  Z   -0.000000   0.241262   1.777690
   10  NA 1  S   -0.000000   5.154829   2.771372
   11  NA 1  X   -0.036452  -0.000000  -0.000000
   12  NA 1  Y    0.007710  -0.000000  -0.000000
   13  NA 1  Z   -0.000000  -1.411387  -0.957320
   14  NA 1 XX   -0.000000   2.035181   1.482561
   15  NA 1 YY   -0.000000   2.035181   1.482561
   16  NA 1 ZZ   -0.000000   2.451463  -0.247359
   17  NA 1 XY   -0.000000  -0.000000  -0.000000
   18  NA 1 XZ    0.809911  -0.000000  -0.000000
   19  NA 1 YZ   -0.171307  -0.000000  -0.000000
   20  NA 2  S   -0.000000   0.001603   0.016345
   21  NA 2  S   -0.000000   0.299229   0.162523
   22  NA 2  X   -0.032612  -0.000000  -0.000000
   23  NA 2  Y    0.006898  -0.000000  -0.000000
   24  NA 2  Z   -0.000000   0.004613  -0.098546
   25  NA 2  S   -0.000000   7.100531   4.423030
   26  NA 2  X    0.236452  -0.000000  -0.000000
   27  NA 2  Y   -0.050013  -0.000000  -0.000000
   28  NA 2  Z   -0.000000   0.241262   1.777690
   29  NA 2  S   -0.000000  -5.154829  -2.771372
   30  NA 2  X    0.036452  -0.000000  -0.000000
   31  NA 2  Y   -0.007710  -0.000000  -0.000000
   32  NA 2  Z   -0.000000  -1.411387  -0.957320
   33  NA 2 XX   -0.000000  -2.035181  -1.482561
   34  NA 2 YY   -0.000000  -2.035181  -1.482561
   35  NA 2 ZZ   -0.000000  -2.451463   0.247359
   36  NA 2 XY   -0.000000  -0.000000  -0.000000
   37  NA 2 XZ    0.809911  -0.000000  -0.000000
   38  NA 2 YZ   -0.171307  -0.000000  -0.000000
 ...... END OF UHF CALCULATION ......
 STEP CPU TIME =     0.01 TOTAL CPU TIME =          0.0 (      0.0 MIN)
 TOTAL WALL CLOCK TIME=          0.0 SECONDS, CPU UTILIZATION IS    96.16%

     ----------------------------------------------------------------
     PROPERTY VALUES FOR THE UHF   SELF-CONSISTENT FIELD WAVEFUNCTION
     ----------------------------------------------------------------

          -----------------
          ENERGY COMPONENTS
          -----------------

         WAVEFUNCTION NORMALIZATION =       1.0000000000

                ONE ELECTRON ENERGY =    -496.2614869739
                TWO ELECTRON ENERGY =     152.3752442401
           NUCLEAR REPULSION ENERGY =      20.2045345872
                                      ------------------
                       TOTAL ENERGY =    -323.6817081465

 ELECTRON-ELECTRON POTENTIAL ENERGY =     152.3752442401
  NUCLEUS-ELECTRON POTENTIAL ENERGY =    -819.6875635375
   NUCLEUS-NUCLEUS POTENTIAL ENERGY =      20.2045345872
                                      ------------------
             TOTAL POTENTIAL ENERGY =    -647.1077847101
               TOTAL KINETIC ENERGY =     323.4260765636
                 VIRIAL RATIO (V/T) =       2.0007903864

  ...... PI ENERGY ANALYSIS ......

 ENERGY ANALYSIS:
            FOCK ENERGY=   -191.5109999218
          BARE H ENERGY=   -496.2614869739
     ELECTRONIC ENERGY =   -343.8862434479
         KINETIC ENERGY=    323.4260765636
          N-N REPULSION=     20.2045345872
           TOTAL ENERGY=   -323.6817088606
        SIGMA PART(1+2)=   -279.5358330462
               (K,V1,2)=    276.4914003442   -656.1314335427    100.1042001524
           PI PART(1+2)=    -64.3504104017
               (K,V1,2)=     46.9346762194   -163.5561299948     52.2710433737
  SIGMA SKELETON, ERROR=   -259.3312984589      0.0000000000
             MIXED PART= 0.00000E+00 0.00000E+00 0.00000E+00 0.00000E+00
 ...... END OF PI ENERGY ANALYSIS ......

          ---------------------------------------
          MULLIKEN AND LOWDIN POPULATION ANALYSES
          ---------------------------------------

     ATOMIC MULLIKEN POPULATION IN EACH MOLECULAR ORBITAL
        ALPHA ORBITALS

                      1          2          3          4          5

                  1.000000   1.000000   1.000000   1.000000   1.000000

    1             0.500000   0.500000   0.500000   0.500000   0.500000
    2             0.500000   0.500000   0.500000   0.500000   0.500000

                      6          7          8          9         10

                  1.000000   1.000000   1.000000   1.000000   1.000000

    1             0.500000   0.500000   0.500000   0.500000   0.500000
    2             0.500000   0.500000   0.500000   0.500000   0.500000

                     11

                  1.000000

    1             0.500000
    2             0.500000

     ATOMIC MULLIKEN POPULATION IN EACH MOLECULAR ORBITAL
         BETA ORBITALS

                      1          2          3          4          5

                  1.000000   1.000000   1.000000   1.000000   1.000000

    1             0.500000   0.500000   0.500000   0.500000   0.500000
    2             0.500000   0.500000   0.500000   0.500000   0.500000

                      6          7          8          9         10

                  1.000000   1.000000   1.000000   1.000000   1.000000

    1             0.500000   0.500000   0.500000   0.500000   0.500000
    2             0.500000   0.500000   0.500000   0.500000   0.500000

                     11

                  1.000000

    1             0.500000
    2             0.500000

     ATOMIC SPIN POPULATION (ALPHA MINUS BETA)
       ATOM         MULL.POP.                    LOW.POP.
    1 NA            0.000000                     0.000000
    2 NA            0.000000                     0.000000


          ********* ALL ELECTRONS ********

               ----- POPULATIONS IN EACH AO -----
                             MULLIKEN      LOWDIN
              1  NA 1  S      1.99994     1.99961
              2  NA 1  S      1.99993     1.98632
              3  NA 1  X      1.99606     1.97786
              4  NA 1  Y      1.99606     1.97786
              5  NA 1  Z      1.99632     1.97763
              6  NA 1  S      0.35380     0.25724
              7  NA 1  X      0.00414     0.02166
              8  NA 1  Y      0.00414     0.02166
              9  NA 1  Z      0.03507     0.04739
             10  NA 1  S      0.56581     0.44851
             11  NA 1  X     -0.00022     0.00047
             12  NA 1  Y     -0.00022     0.00047
             13  NA 1  Z      0.02035     0.05057
             14  NA 1 XX      0.00503     0.07161
             15  NA 1 YY      0.00503     0.07161
             16  NA 1 ZZ      0.01873     0.08951
             17  NA 1 XY      0.00000     0.00000
             18  NA 1 XZ      0.00002     0.00001
             19  NA 1 YZ      0.00002     0.00001
             20  NA 2  S      1.99994     1.99961
             21  NA 2  S      1.99993     1.98632
             22  NA 2  X      1.99606     1.97786
             23  NA 2  Y      1.99606     1.97786
             24  NA 2  Z      1.99632     1.97763
             25  NA 2  S      0.35380     0.25724
             26  NA 2  X      0.00414     0.02166
             27  NA 2  Y      0.00414     0.02166
             28  NA 2  Z      0.03507     0.04739
             29  NA 2  S      0.56581     0.44851
             30  NA 2  X     -0.00022     0.00047
             31  NA 2  Y     -0.00022     0.00047
             32  NA 2  Z      0.02035     0.05057
             33  NA 2 XX      0.00503     0.07161
             34  NA 2 YY      0.00503     0.07161
             35  NA 2 ZZ      0.01873     0.08951
             36  NA 2 XY      0.00000     0.00000
             37  NA 2 XZ      0.00002     0.00001
             38  NA 2 YZ      0.00002     0.00001

          ----- MULLIKEN ATOMIC OVERLAP POPULATIONS -----
          (OFF-DIAGONAL ELEMENTS NEED TO BE MULTIPLIED BY 2)

             1           2

    1   10.6170606
    2    0.3829394  10.6170606

          TOTAL MULLIKEN AND LOWDIN ATOMIC POPULATIONS
       ATOM         MULL.POP.    CHARGE          LOW.POP.     CHARGE
    1 NA           11.000000   -0.000000        11.000000   -0.000000
    2 NA           11.000000    0.000000        11.000000    0.000000

          -------------------------------
          BOND ORDER AND VALENCE ANALYSIS     BOND ORDER THRESHOLD=0.050
          -------------------------------

                   BOND                       BOND                       BOND
  ATOM PAIR DIST  ORDER      ATOM PAIR DIST  ORDER      ATOM PAIR DIST  ORDER
    1   2  3.169  1.002

                       TOTAL       BONDED        FREE
      ATOM            VALENCE     VALENCE     VALENCE
    1 NA                1.002       1.002      -0.000
    2 NA                1.002       1.002      -0.000

          -----------------------------------------
          ATOMIC SPIN DENSITY AT THE NUCLEUS (A.U.)
          -----------------------------------------
                            SPIN DENS    ALPHA DENS     BETA DENS
    1  NA          11.0     0.0000000     390.94655     390.94655
    2  NA          11.0     0.0000000     390.94655     390.94655

          ---------------------
          ELECTROSTATIC MOMENTS
          ---------------------

 POINT   1           X           Y           Z (BOHR)    CHARGE
                 0.000000    0.000000   -0.000000        0.00 (A.U.)
         DX          DY          DZ         /D/  (DEBYE)
     0.000000    0.000000   -0.000000    0.000000
 ...... END OF PROPERTY EVALUATION ......
 STEP CPU TIME =     0.00 TOTAL CPU TIME =          0.0 (      0.0 MIN)
 TOTAL WALL CLOCK TIME=          0.0 SECONDS, CPU UTILIZATION IS    96.37%

 BEGINNING ONE ELECTRON GRADIENT...
 ..... END OF 1-ELECTRON GRADIENT ......
 STEP CPU TIME =     0.00 TOTAL CPU TIME =          0.0 (      0.0 MIN)
 TOTAL WALL CLOCK TIME=          0.0 SECONDS, CPU UTILIZATION IS    96.49%

          ----------------------
          GRADIENT OF THE ENERGY
          ----------------------

 THE MINIMUM MEMORY REQUIRED FOR THIS RUN IS      79013 WORDS.
 USING     993563 WORDS FOR 2E- DERIVATIVE INTEGRAL CONTRIBUTIONS.
 THE COARSE/FINE SCHWARZ SCREENINGS SKIPPED            0/           0 BLOCKS.
 THE NUMBER OF GRADIENT INTEGRAL BLOCKS COMPUTED WAS      1270
 ...... END OF 2-ELECTRON GRADIENT ......
 STEP CPU TIME =     0.05 TOTAL CPU TIME =          0.1 (      0.0 MIN)
 TOTAL WALL CLOCK TIME=          0.1 SECONDS, CPU UTILIZATION IS    98.67%

          NSERCH=  0     ENERGY=    -323.6817081

                                 -----------------------
                                 GRADIENT (HARTREE/BOHR)
                                 -----------------------
        ATOM     ZNUC       DE/DX         DE/DY         DE/DZ
 --------------------------------------------------------------
    1  NA          11.0     0.0000000     0.0000000    -0.0004026
    2  NA          11.0     0.0000000     0.0000000     0.0004026

          MAXIMUM GRADIENT = 0.0004026    RMS GRADIENT = 0.0002324

 NSERCH:   0  E=     -323.6817081465  GRAD. MAX=  0.0004026  R.M.S.=  0.0002324

          FORCE CONSTANT MATRIX NOT UPDATED --- TAKING FIRST STEP
          MIN SEARCH, CORRECT HESSIAN, TRYING PURE NR STEP
               NR STEP HAS LENGTH         =   0.000590
          RADIUS OF STEP TAKEN=   0.00059  CURRENT TRUST RADIUS=   0.30000

 BEGINNING GEOMETRY SEARCH POINT NSERCH=   1 ...

 COORDINATES OF ALL ATOMS ARE (ANGS)
   ATOM   CHARGE       X              Y              Z
 ------------------------------------------------------------
 NA         11.0   0.0000000000   0.0000000000   1.5847769381
 NA         11.0   0.0000000000  -0.0000000000  -1.5847769381

          INTERNUCLEAR DISTANCES (ANGS.)
          ------------------------------

                1 NA         2 NA    

   1 NA      0.0000000    3.1695539  
   2 NA      3.1695539    0.0000000  

  * ... LESS THAN  3.000

 ...... END OF ONE-ELECTRON INTEGRALS ......
 STEP CPU TIME =     0.00 TOTAL CPU TIME =          0.1 (      0.0 MIN)
 TOTAL WALL CLOCK TIME=          0.1 SECONDS, CPU UTILIZATION IS    98.68%
 TOTAL NUMBER OF NONZERO TWO-ELECTRON INTEGRALS =               70297
          5 INTEGRAL RECORDS WERE STORED ON DISK FILE  8.
  ...... END OF TWO-ELECTRON INTEGRALS .....
 STEP CPU TIME =     0.01 TOTAL CPU TIME =          0.1 (      0.0 MIN)
 TOTAL WALL CLOCK TIME=          0.1 SECONDS, CPU UTILIZATION IS    98.71%

          ---------------------------
                  UHF SCF CALCULATION
          ---------------------------
     DENSITY MATRIX CONV=  1.00E-05

[...]
   20  NA 2  S   -0.705628   0.705632   0.173798  -0.173851   0.001032
   21  NA 2  S   -0.006258   0.006245  -0.726927   0.726685  -0.004120
   22  NA 2  X    0.000000   0.000000   0.000000   0.000000   0.000000
   23  NA 2  Y    0.000000   0.000000   0.000000   0.000000   0.000000
   24  NA 2  Z    0.000000  -0.000016   0.004527  -0.004394  -0.705046
   25  NA 2  S    0.000799  -0.001319  -0.001673  -0.006297   0.003382
   26  NA 2  X    0.000000   0.000000   0.000000   0.000000   0.000000
   27  NA 2  Y    0.000000   0.000000   0.000000   0.000000   0.000000
   28  NA 2  Z    0.000609   0.000060   0.000165  -0.004095  -0.008402
   29  NA 2  S    0.000294   0.000487  -0.000623   0.011543  -0.001578
   30  NA 2  X    0.000000   0.000000   0.000000   0.000000   0.000000
   31  NA 2  Y    0.000000   0.000000   0.000000   0.000000   0.000000
   32  NA 2  Z    0.000246  -0.000034  -0.000248   0.004844   0.001779
   33  NA 2 XX    0.000051   0.000117   0.002005   0.000114  -0.000917
   34  NA 2 YY    0.000051   0.000117   0.002005   0.000114  -0.000917
   35  NA 2 ZZ    0.000579   0.000121   0.001579  -0.002445  -0.000568
   36  NA 2 XY    0.000000   0.000000   0.000000   0.000000   0.000000
   37  NA 2 XZ    0.000000   0.000000   0.000000   0.000000   0.000000
   38  NA 2 YZ    0.000000   0.000000   0.000000   0.000000   0.000000

                      6          7          8          9         10
                   -1.5102    -1.5102    -1.5100    -1.5100    -1.5096
                     A          A          A          A          A   
    1  NA 1  S    0.000000   0.000000   0.000000   0.000000   0.001323
    2  NA 1  S    0.000000   0.000000   0.000000   0.000000  -0.005659
    3  NA 1  X    0.624206  -0.329039   0.642375  -0.292601   0.000000
    4  NA 1  Y    0.329039   0.624206  -0.292601  -0.642375   0.000000
    5  NA 1  Z    0.000000   0.000000   0.000000   0.000000   0.706518
    6  NA 1  S    0.000000   0.000000   0.000000   0.000000   0.002895
    7  NA 1  X    0.006750  -0.003558   0.006588  -0.003001   0.000000
    8  NA 1  Y    0.003558   0.006750  -0.003001  -0.006588   0.000000
    9  NA 1  Z    0.000000   0.000000   0.000000   0.000000   0.002363
   10  NA 1  S    0.000000   0.000000   0.000000   0.000000   0.001658
   11  NA 1  X   -0.000904   0.000476  -0.001491   0.000679   0.000000
   12  NA 1  Y   -0.000476  -0.000904   0.000679   0.001491   0.000000
   13  NA 1  Z    0.000000   0.000000   0.000000   0.000000  -0.001260
   14  NA 1 XX    0.000000   0.000000   0.000000   0.000000  -0.001118
   15  NA 1 YY    0.000000   0.000000   0.000000   0.000000  -0.001118
   16  NA 1 ZZ    0.000000   0.000000   0.000000   0.000000   0.005537
   17  NA 1 XY    0.000000   0.000000   0.000000   0.000000   0.000000
   18  NA 1 XZ    0.000679  -0.000358   0.001312  -0.000598   0.000000
   19  NA 1 YZ    0.000358   0.000679  -0.000598  -0.001312   0.000000
   20  NA 2  S    0.000000   0.000000   0.000000   0.000000  -0.001323
   21  NA 2  S    0.000000   0.000000   0.000000   0.000000   0.005659
   22  NA 2  X    0.624206  -0.329039  -0.642375   0.292601   0.000000
   23  NA 2  Y    0.329039   0.624206   0.292601   0.642375   0.000000
   24  NA 2  Z    0.000000   0.000000   0.000000   0.000000   0.706518
   25  NA 2  S    0.000000   0.000000   0.000000   0.000000  -0.002895
   26  NA 2  X    0.006750  -0.003558  -0.006588   0.003001   0.000000
   27  NA 2  Y    0.003558   0.006750   0.003001   0.006588   0.000000
   28  NA 2  Z    0.000000   0.000000   0.000000   0.000000   0.002363
   29  NA 2  S    0.000000   0.000000   0.000000   0.000000  -0.001658
   30  NA 2  X   -0.000904   0.000476   0.001491  -0.000679   0.000000
   31  NA 2  Y   -0.000476  -0.000904  -0.000679  -0.001491   0.000000
   32  NA 2  Z    0.000000   0.000000   0.000000   0.000000  -0.001260
   33  NA 2 XX    0.000000   0.000000   0.000000   0.000000   0.001118
   34  NA 2 YY    0.000000   0.000000   0.000000   0.000000   0.001118
   35  NA 2 ZZ    0.000000   0.000000   0.000000   0.000000  -0.005537
   36  NA 2 XY    0.000000   0.000000   0.000000   0.000000   0.000000
   37  NA 2 XZ   -0.000679   0.000358   0.001312  -0.000598   0.000000
   38  NA 2 YZ   -0.000358  -0.000679  -0.000598  -0.001312   0.000000

                     11         12         13         14         15
                   -0.1637     0.0056     0.0344     0.0344     0.0478
                     A          A          A          A          A   
    1  NA 1  S    0.025191   0.016103   0.000000   0.000000  -0.005046
    2  NA 1  S   -0.151889  -0.110840   0.000000   0.000000   0.004241
    3  NA 1  X    0.000000   0.000000  -0.047717   0.018144   0.000000
    4  NA 1  Y    0.000000   0.000000   0.018144   0.047717   0.000000
    5  NA 1  Z    0.033048  -0.034272   0.000000   0.000000  -0.055262
    6  NA 1  S    0.226853  -0.010529   0.000000   0.000000  -0.436140
    7  NA 1  X    0.000000   0.000000   0.009659  -0.003673   0.000000
    8  NA 1  Y    0.000000   0.000000  -0.003673  -0.009659   0.000000
    9  NA 1  Z   -0.053698   0.028970   0.000000   0.000000  -0.019460
   10  NA 1  S    0.330514   0.061595   0.000000   0.000000   0.621604
   11  NA 1  X    0.000000   0.000000   0.513626  -0.195302   0.000000
   12  NA 1  Y    0.000000   0.000000  -0.195302  -0.513626   0.000000
   13  NA 1  Z   -0.027371   0.618631   0.000000   0.000000   0.782820
   14  NA 1 XX    0.005559   0.033107   0.000000   0.000000   0.076311
   15  NA 1 YY    0.005559   0.033107   0.000000   0.000000   0.076311
   16  NA 1 ZZ    0.017120   0.030811   0.000000   0.000000   0.073749
   17  NA 1 XY    0.000000   0.000000   0.000000   0.000000   0.000000
   18  NA 1 XZ    0.000000   0.000000  -0.001191   0.000453   0.000000
   19  NA 1 YZ    0.000000   0.000000   0.000453   0.001191   0.000000
   20  NA 2  S    0.025191  -0.016103   0.000000   0.000000  -0.005046
   21  NA 2  S   -0.151889   0.110840   0.000000   0.000000   0.004241
   22  NA 2  X    0.000000   0.000000  -0.047717   0.018144   0.000000
   23  NA 2  Y    0.000000   0.000000   0.018144   0.047717   0.000000
   24  NA 2  Z   -0.033048  -0.034272   0.000000   0.000000   0.055262
   25  NA 2  S    0.226853   0.010529   0.000000   0.000000  -0.436140
   26  NA 2  X    0.000000   0.000000   0.009659  -0.003673   0.000000
   27  NA 2  Y    0.000000   0.000000  -0.003673  -0.009659   0.000000
   28  NA 2  Z    0.053698   0.028970   0.000000   0.000000   0.019460
   29  NA 2  S    0.330514  -0.061595   0.000000   0.000000   0.621604
   30  NA 2  X    0.000000   0.000000   0.513626  -0.195302   0.000000
   31  NA 2  Y    0.000000   0.000000  -0.195302  -0.513626   0.000000
   32  NA 2  Z    0.027371   0.618631   0.000000   0.000000  -0.782820
   33  NA 2 XX    0.005559  -0.033107   0.000000   0.000000   0.076311
   34  NA 2 YY    0.005559  -0.033107   0.000000   0.000000   0.076311
   35  NA 2 ZZ    0.017120  -0.030811   0.000000   0.000000   0.073749
   36  NA 2 XY    0.000000   0.000000   0.000000   0.000000   0.000000
   37  NA 2 XZ    0.000000   0.000000   0.001191  -0.000453   0.000000
   38  NA 2 YZ    0.000000   0.000000  -0.000453  -0.001191   0.000000

                     16         17         18         19         20
                    0.0669     0.0669     0.0941     0.1225     0.1880
                     A          A          A          A          A   
    1  NA 1  S    0.000000   0.000000   0.018838  -0.018412  -0.013597
    2  NA 1  S    0.000000   0.000000  -0.142953  -0.080418  -0.177647
    3  NA 1  X    0.030746   0.010811   0.000000   0.000000   0.000000
    4  NA 1  Y    0.010811  -0.030746   0.000000   0.000000   0.000000
    5  NA 1  Z    0.000000   0.000000  -0.021197  -0.004730   0.073729
    6  NA 1  S    0.000000   0.000000   0.056247  -2.730717  -3.224237
    7  NA 1  X    0.065182   0.022919   0.000000   0.000000   0.000000
    8  NA 1  Y    0.022919  -0.065182   0.000000   0.000000   0.000000
    9  NA 1  Z    0.000000   0.000000   0.195889   0.038089  -0.450859
   10  NA 1  S    0.000000   0.000000   4.797843   1.485106   6.651183
   11  NA 1  X   -1.143969  -0.402229   0.000000   0.000000   0.000000
   12  NA 1  Y   -0.402229   1.143969   0.000000   0.000000   0.000000
   13  NA 1  Z    0.000000   0.000000  -2.936588  -0.439823  -2.239357
   14  NA 1 XX    0.000000   0.000000  -0.015610   0.468097   0.475532
   15  NA 1 YY    0.000000   0.000000  -0.015610   0.468097   0.475532
   16  NA 1 ZZ    0.000000   0.000000  -0.035783   0.441639   0.469910
   17  NA 1 XY    0.000000   0.000000   0.000000   0.000000   0.000000
   18  NA 1 XZ   -0.009751  -0.003429   0.000000   0.000000   0.000000
   19  NA 1 YZ   -0.003429   0.009751   0.000000   0.000000   0.000000
   20  NA 2  S    0.000000   0.000000  -0.018838  -0.018412   0.013597
   21  NA 2  S    0.000000   0.000000   0.142953  -0.080418   0.177647
   22  NA 2  X   -0.030746  -0.010811   0.000000   0.000000   0.000000
   23  NA 2  Y   -0.010811   0.030746   0.000000   0.000000   0.000000
   24  NA 2  Z    0.000000   0.000000  -0.021197   0.004730   0.073729
   25  NA 2  S    0.000000   0.000000  -0.056247  -2.730717   3.224237
   26  NA 2  X   -0.065182  -0.022919   0.000000   0.000000   0.000000
   27  NA 2  Y   -0.022919   0.065182   0.000000   0.000000   0.000000
   28  NA 2  Z    0.000000   0.000000   0.195889  -0.038089  -0.450859
   29  NA 2  S    0.000000   0.000000  -4.797843   1.485106  -6.651183
   30  NA 2  X    1.143969   0.402229   0.000000   0.000000   0.000000
   31  NA 2  Y    0.402229  -1.143969   0.000000   0.000000   0.000000
   32  NA 2  Z    0.000000   0.000000  -2.936588   0.439823  -2.239357
   33  NA 2 XX    0.000000   0.000000   0.015610   0.468097  -0.475532
   34  NA 2 YY    0.000000   0.000000   0.015610   0.468097  -0.475532
   35  NA 2 ZZ    0.000000   0.000000   0.035783   0.441639  -0.469910
   36  NA 2 XY    0.000000   0.000000   0.000000   0.000000   0.000000
   37  NA 2 XZ   -0.009751  -0.003429   0.000000   0.000000   0.000000
   38  NA 2 YZ   -0.003429   0.009751   0.000000   0.000000   0.000000

                     21
                    0.1974
                     A   
    1  NA 1  S   -0.005134
    2  NA 1  S    0.006612
    3  NA 1  X    0.000000
    4  NA 1  Y    0.000000
    5  NA 1  Z    0.157759
    6  NA 1  S   -0.537950
    7  NA 1  X    0.000000
    8  NA 1  Y    0.000000
    9  NA 1  Z   -0.857937
   10  NA 1  S    0.341571
   11  NA 1  X    0.000000
   12  NA 1  Y    0.000000
   13  NA 1  Z    0.739950
   14  NA 1 XX    0.133982
   15  NA 1 YY    0.133982
   16  NA 1 ZZ    0.082350
   17  NA 1 XY    0.000000
   18  NA 1 XZ    0.000000
   19  NA 1 YZ    0.000000
   20  NA 2  S   -0.005134
   21  NA 2  S    0.006612
   22  NA 2  X    0.000000
   23  NA 2  Y    0.000000
   24  NA 2  Z   -0.157759
   25  NA 2  S   -0.537950
   26  NA 2  X    0.000000
   27  NA 2  Y    0.000000
   28  NA 2  Z    0.857937
   29  NA 2  S    0.341571
   30  NA 2  X    0.000000
   31  NA 2  Y    0.000000
   32  NA 2  Z   -0.739950
   33  NA 2 XX    0.133982
   34  NA 2 YY    0.133982
   35  NA 2 ZZ    0.082350
   36  NA 2 XY    0.000000
   37  NA 2 XZ    0.000000
   38  NA 2 YZ    0.000000

     ----------------------------------------------------------------
     PROPERTY VALUES FOR THE UHF   SELF-CONSISTENT FIELD WAVEFUNCTION
     ----------------------------------------------------------------

          -----------------
          ENERGY COMPONENTS
          -----------------

         WAVEFUNCTION NORMALIZATION =       1.0000000000

                ONE ELECTRON ENERGY =    -496.0160907977
                TWO ELECTRON ENERGY =     152.2509351321
           NUCLEAR REPULSION ENERGY =      20.0834400676
                                      ------------------
                       TOTAL ENERGY =    -323.6817155980

 ELECTRON-ELECTRON POTENTIAL ENERGY =     152.2509351321
  NUCLEUS-ELECTRON POTENTIAL ENERGY =    -819.4391288827
   NUCLEUS-NUCLEUS POTENTIAL ENERGY =      20.0834400676
                                      ------------------
             TOTAL POTENTIAL ENERGY =    -647.1047536830
               TOTAL KINETIC ENERGY =     323.4230380850
                 VIRIAL RATIO (V/T) =       2.0007998116

  ...... PI ENERGY ANALYSIS ......

 ENERGY ANALYSIS:
            FOCK ENERGY=   -191.5142216716
          BARE H ENERGY=   -496.0160907977
     ELECTRONIC ENERGY =   -343.7651562347
         KINETIC ENERGY=    323.4230380850
          N-N REPULSION=     20.0834400676
           TOTAL ENERGY=   -323.6817161671
        SIGMA PART(1+2)=   -279.4572446170
               (K,V1,2)=    276.4880411571   -655.9692381133    100.0239523392
           PI PART(1+2)=    -64.3079116176
               (K,V1,2)=     46.9349969279   -163.4698907694     52.2269822239
  SIGMA SKELETON, ERROR=   -259.3738045494     -0.0000000000
             MIXED PART= 0.00000E+00 0.00000E+00 0.00000E+00 0.00000E+00
 ...... END OF PI ENERGY ANALYSIS ......

          ---------------------------------------
          MULLIKEN AND LOWDIN POPULATION ANALYSES
          ---------------------------------------

     ATOMIC MULLIKEN POPULATION IN EACH MOLECULAR ORBITAL
        ALPHA ORBITALS

                      1          2          3          4          5

                  1.000000   1.000000   1.000000   1.000000   1.000000

    1             0.500000   0.500000   0.500000   0.500000   0.500000
    2             0.500000   0.500000   0.500000   0.500000   0.500000

                      6          7          8          9         10

                  1.000000   1.000000   1.000000   1.000000   1.000000

    1             0.500000   0.500000   0.500000   0.500000   0.500000
    2             0.500000   0.500000   0.500000   0.500000   0.500000

                     11

                  1.000000

    1             0.500000
    2             0.500000

     ATOMIC MULLIKEN POPULATION IN EACH MOLECULAR ORBITAL
         BETA ORBITALS

                      1          2          3          4          5

                  1.000000   1.000000   1.000000   1.000000   1.000000

    1             0.500000   0.500000   0.500000   0.500000   0.500000
    2             0.500000   0.500000   0.500000   0.500000   0.500000

                      6          7          8          9         10

                  1.000000   1.000000   1.000000   1.000000   1.000000

    1             0.500000   0.500000   0.500000   0.500000   0.500000
    2             0.500000   0.500000   0.500000   0.500000   0.500000

                     11

                  1.000000

    1             0.500000
    2             0.500000

     ATOMIC SPIN POPULATION (ALPHA MINUS BETA)
       ATOM         MULL.POP.                    LOW.POP.
    1 NA            0.000000                     0.000000
    2 NA            0.000000                     0.000000


          ********* ALL ELECTRONS ********

               ----- POPULATIONS IN EACH AO -----
                             MULLIKEN      LOWDIN
              1  NA 1  S      1.99994     1.99960
              2  NA 1  S      1.99996     1.98631
              3  NA 1  X      1.99607     1.97787
              4  NA 1  Y      1.99607     1.97787
              5  NA 1  Z      1.99633     1.97769
              6  NA 1  S      0.35213     0.25691
              7  NA 1  X      0.00413     0.02165
              8  NA 1  Y      0.00413     0.02165
              9  NA 1  Z      0.03497     0.04728
             10  NA 1  S      0.56757     0.44952
             11  NA 1  X     -0.00021     0.00047
             12  NA 1  Y     -0.00021     0.00047
             13  NA 1  Z      0.02056     0.05078
             14  NA 1 XX      0.00495     0.07128
             15  NA 1 YY      0.00495     0.07128
             16  NA 1 ZZ      0.01865     0.08935
             17  NA 1 XY      0.00000     0.00000
             18  NA 1 XZ      0.00002     0.00001
             19  NA 1 YZ      0.00002     0.00001
             20  NA 2  S      1.99994     1.99960
             21  NA 2  S      1.99996     1.98631
             22  NA 2  X      1.99607     1.97787
             23  NA 2  Y      1.99607     1.97787
             24  NA 2  Z      1.99633     1.97769
             25  NA 2  S      0.35213     0.25691
             26  NA 2  X      0.00413     0.02165
             27  NA 2  Y      0.00413     0.02165
             28  NA 2  Z      0.03497     0.04728
             29  NA 2  S      0.56757     0.44952
             30  NA 2  X     -0.00021     0.00047
             31  NA 2  Y     -0.00021     0.00047
             32  NA 2  Z      0.02056     0.05078
             33  NA 2 XX      0.00495     0.07128
             34  NA 2 YY      0.00495     0.07128
             35  NA 2 ZZ      0.01865     0.08935
             36  NA 2 XY      0.00000     0.00000
             37  NA 2 XZ      0.00002     0.00001
             38  NA 2 YZ      0.00002     0.00001

          ----- MULLIKEN ATOMIC OVERLAP POPULATIONS -----
          (OFF-DIAGONAL ELEMENTS NEED TO BE MULTIPLIED BY 2)

             1           2

    1   10.6181678
    2    0.3818322  10.6181678

          TOTAL MULLIKEN AND LOWDIN ATOMIC POPULATIONS
       ATOM         MULL.POP.    CHARGE          LOW.POP.     CHARGE
    1 NA           11.000000    0.000000        11.000000    0.000000
    2 NA           11.000000   -0.000000        11.000000   -0.000000

          -------------------------------
          BOND ORDER AND VALENCE ANALYSIS     BOND ORDER THRESHOLD=0.050
          -------------------------------

                   BOND                       BOND                       BOND
  ATOM PAIR DIST  ORDER      ATOM PAIR DIST  ORDER      ATOM PAIR DIST  ORDER
    1   2  3.188  1.001

                       TOTAL       BONDED        FREE
      ATOM            VALENCE     VALENCE     VALENCE
    1 NA                1.001       1.001      -0.000
    2 NA                1.001       1.001      -0.000

          -----------------------------------------
          ATOMIC SPIN DENSITY AT THE NUCLEUS (A.U.)
          -----------------------------------------
                            SPIN DENS    ALPHA DENS     BETA DENS
    1  NA          11.0     0.0000000     390.94487     390.94487
    2  NA          11.0     0.0000000     390.94487     390.94487

          ---------------------
          ELECTROSTATIC MOMENTS
          ---------------------

 POINT   1           X           Y           Z (BOHR)    CHARGE
                 0.000000   -0.000000   -0.000000       -0.00 (A.U.)
         DX          DY          DZ         /D/  (DEBYE)
     0.000000    0.000000    0.000000    0.000000
 ...... END OF PROPERTY EVALUATION ......
 STEP CPU TIME =     0.00 TOTAL CPU TIME =          0.2 (      0.0 MIN)
 TOTAL WALL CLOCK TIME=          0.2 SECONDS, CPU UTILIZATION IS    99.35%
  $VIB   
          IVIB=   0 IATOM=   0 ICOORD=   0 E=     -323.6817155980
  0.000000000E+00 0.000000000E+00-6.537470221E-06 0.000000000E+00 0.000000000E+00
  6.537470219E-06
  0.000000000E+00 1.223815813E-34 1.625430031E-13
 ......END OF GEOMETRY SEARCH......
 STEP CPU TIME =     0.00 TOTAL CPU TIME =          0.2 (      0.0 MIN)
 TOTAL WALL CLOCK TIME=          0.2 SECONDS, CPU UTILIZATION IS    99.35%
               993587  WORDS OF DYNAMIC MEMORY USED
 EXECUTION OF GAMESS TERMINATED NORMALLY 19:56:13 20-OCT-2025    
----- accounting info -----
Files used on the parent node Macbooks-MacBook-Pro.local were:
-rw-r--r--  1 macbookpro  staff      241 Oct 20 19:56 /Users/macbookpro/local/gamess/scr/na2_q0m1_uhf_631g_star.F05
-rw-r--r--  1 macbookpro  staff   900080 Oct 20 19:56 /Users/macbookpro/local/gamess/scr/na2_q0m1_uhf_631g_star.F08
-rw-r--r--  1 macbookpro  staff  2094080 Oct 20 19:56 /Users/macbookpro/local/gamess/scr/na2_q0m1_uhf_631g_star.F10
-rw-r--r--  1 macbookpro  staff   126127 Oct 20 19:56 /Users/macbookpro/local/gamess/scr/na2_q0m1_uhf_631g_star.dat
Mon Oct 20 19:56:13 +07 2025
0.235u 0.054s 0:00.28 100.0%	0+0k 0+0io 46pf+0w
