1 : nacl_q0m1_uhf_631g_star.inp
----- GAMESS execution script 'rungms' -----
This job is running on host Macbooks-MacBook-Pro.local
under operating system Darwin at Mon Oct 20 19:56:13 +07 2025
Available scratch disk space (Kbyte units) at beginning of the job is
Filesystem   1024-blocks      Used Available Capacity iused      ifree %iused  Mounted on
/dev/disk3s5   482797652 122178712 339914500    27% 1896453 3399145000    0%   /System/Volumes/Data
GAMESS temporary binary files will be written to /Users/macbookpro/local/gamess/scr
GAMESS supplementary output files will be written to /Users/macbookpro/local/gamess/scr
Copying input file /Users/macbookpro/sq2_data/nacl_q0m1_uhf_631g_star.inp to your run's scratch directory...
          *******************************************************
          *                                                     *
          *          GAMESS VERSION = 30 JUN 2023 (R1)          *
          *                                                     *
          *              doi.org/10.1063/5.0005188              *
          *                                                     *
          **************** 64 BIT LINUX VERSION *****************

  GAMESS HAS BEEN MADE POSSIBLE WITH IMPORTANT CONTRIBUTIONS FROM
  THE FOLLOWING INDIVIDUALS (IN ALPHABETICAL ORDER):

     IVANA ADAMOVIC, CHRISTINE AIKENS, TOMOKO AKAMA,
     MELISA ALKAN, YURI ALEXEEV, YURIKO AOKI, POOJA ARORA,
     TOSHIO ASADA, ANDREY ASADCHEV, KIM K. BALDRIDGE,
     PRADIPTA BANDYOPADHYAY, TAYLOR A. BARNES, MARIA BARYSZ,
     ROB BELL, JONATHAN BENTZ, COLLEEN BERTONI,
     JERRY A. BOATZ, BRETT BODE, KURT BRORSEN, KURT R. BRORSEN,
     LAIMUTIS BYTAUTAS, CALEB CARLIN, LAURA CARRINGTON,
     GALINA CHABAN, BENOIT CHAMPAGNE, WEI CHEN, MAHITO CHIBA,
     DAN CHIPMAN, CHEOL HO CHOI, TANNER CULPITT,
     DIPAYAN DATTA, PAUL DAY, ALBERT DEFUSCO,
     NUWAN DESILVA, J. EMILIANO DEUSTUA,
     TIM DUDLEY, MICHEL DUPUIS, STEVEN T. ELBERT,
     DMITRI FEDOROV, KATHERINE FERRERAS, MICHAEL FILATOV,
     ALEX FINDLATER,GRAHAM FLETCHER, MARK FREITAG,
     CHRISTIAN FRIEDL, DAVID GARMER, 
     IGOR S. GERASIMOV, KURT GLAESEMANN,
     MARK S. GORDON, JEFFREY R. GOUR, FENG LONG GU,
     EMILIE B. GUIDEZ, ANASTASIA GUNINA, SHARON HAMMES-SCHIFFER,
     MASATAKE HARUTA, KIMIHIKO HIRAO, YASUHIRO IKABATA,
     TZVETELIN IORDANOV, STEPHAN IRLE, KAZUYA ISHIMURA,
     JOE IVANIC, FRANK JENSEN, JAN H. JENSEN, VISVALDAS KAIRYS,
     MUNEAKI KAMIYA, MICHIO KATOUDA, NAOAKI KAWAKAMI, DAN KEMP,
     BERNARD KIRTMAN, KAZUO KITAURA, MARIUSZ KLOBUKOWSKI,
     MASATO KOBAYASHI, KONSTANTIN KOMAROV, PRAKASHAN KORAMBATH,
     JACEK KORCHOWIEC, SHIRO KOSEKI, KAROL KOWALSKI,
     JIMMY KROMANN, STANISLAW A. KUCHARSKI, HENRY KURTZ,
     SAROM SOK LEANG, SEUNGHOON LEE, HUI LI, SHUHUA LI, WEI LI,
     JESSE J. LUTZ, ALEKSANDR O. LYKHIN,
     ILIAS MAGOULAS, MARCIN MAKOWSKI,
     JOANI MATO, NIKITA MATSUNAGA, BENEDETTA MENNUCCI,
     GRANT MERRILL, NORIYUKI MINEZAWA, VLADIMIR MIRONOV,
     EISAKU MIYOSHI, JOHN A. MONTGOMERY JR., HIROTOSHI MORI,
     JONATHAN MULLIN, MONIKA MUSIAL, SHIGERU NAGASE,
     TAKESHI NAGATA, HIROMI NAKAI, TAKAHITO NAKAJIMA,
     YUYA NAKAJIMA, HARUYUKI NAKANO, HIROYA NAKATA, SEAN NEDD,
     HEATHER NETZLOFF, KIET A. NGUYEN, YOSHIO NISHIMOTO,
     BOSILJKA NJEGIC, RYAN OLSON, MIKE PAK, ROBERTO PEVERATI,
     BUU PHAM, PIOTR PIECUCH, ANNA POMOGAEVA, DAVID POOLE,
     SPENCER PRUITT, OLIVIER QUINET, LUKE ROSKOP,
     KLAUS RUEDENBERG, ANDREW SAND, TOSAPORN SATTASATHUCHANA,
     NOZOMI SAWADA, MICHAEL W. SCHMIDT, PATRICK E. SCHNEIDER,
     JUNJI SEINO, PRACHI SHARMA, JUN SHEN, JIM SHOEMAKER,
     YINAN SHU, DEJUN SI, JONATHAN SKONE, LYUDMILA SLIPCHENKO,
     TONY SMITH, JIE SONG, MARK SPACKMAN, CASPER STEINMANN,
     WALT STEVENS, PEIFENG SU, SHUJUN SU, CHET SWALINA,
     CHINAMI TAKASHIMA, TETSUYA TAKETSUGU, ZHEN TAO,
     NANDUN THELLAMUREGE, SEIKEN TOKURA, JACOPO TOMASI,
     TSUGUKI TOUMA, TAKAO TSUNEDA, HIROAKI UMEDA,
     JORGE LUIS GALVEZ VALLEJO, YALI WANG, SIMON WEBB,
     AARON WEST, THERESA L. WINDUS, MARTA WLOCH,
     PENG XU, KIYOSHI YAGI, SUSUMU YANAGISAWA, YANG YANG,
     SOOHAENG YOO, TAKESHI YOSHIKAWA, FEDERICO ZAHARIEV,
     TOBY ZENG

  WHO ARE SUPPORTED BY THEIR INSTITUTION/UNIVERSITY/COMPANY/GROUP
  (IN ALPHABETICAL ORDER):

     EP ANALYTICS,
     FACULTES UNIVERSITAIRES NOTRE-DAME DE LA PAIX,
     INSTITUTE FOR MOLECULAR SCIENCE, IOWA STATE UNIVERSITY,
     JACKSON STATE UNIVERSITY, JOHANNES KEPLER UNIVERSITY LINZ,
     KYUNGPOOK NATIONAL UNIVERSITY
     KYUSHU UNIVERSITY, MICHIGAN STATE UNIVERSITY,
     MIE UNIVERSITY, THE MOLECULAR SCIENCES SOFTWARE INSTITUTE,
     MOSCOW STATE UNIVERSITY,
     N. COPERNICUS UNIVERSITY, NAGOYA UNIVERSITY,
     NANJING UNIVERSITY, NAT. INST. OF ADVANCED INDUSTRIAL
     SCIENCE AND TECHNOLOGY, NATIONAL INST. OF STANDARDS AND
     TECHNOLOGY, NESMEYANOV INSTITUTE OF ORGANOELEMENT COMPOUNDS
     OF RUSSIAN ACADEMY OF SCIENCES, OSAKA PREFECTURE UNIVERSITY,
     PENNSYLVANIA STATE UNIVERSITY, TOKYO INSTITUTE OF TECHNOLOGY,
     UNIVERSITY OF AARHUS, UNIVERSITY OF ALBERTA,
     UNIVERSITY OF CALIFORNIA AT SANTA BARBARA,
     UNIVERSITY OF COPENHAGEN, UNIVERSITY OF IOWA,
     UNIVERSITY OF MEMPHIS, UNIVERSITY OF MINNESOTA,
     UNIVERSITY OF NEBRASKA, UNIVERSITY OF NEW ENGLAND,
     UNIVERSITY OF NOTRE DAME, UNIVERSITY OF PISA,
     UNIVERSITY OF SILESIA, UNIVERSITY OF TOKYO,
     UNIVERSITY OF ZURICH, WASEDA UNIVERSITY,
     YALE UNIVERSITY

  GAMESS SOFTWARE MANAGEMENT TEAM FOR THIS RELEASE:
     MARK S. GORDON (TEAM LEAD),
     BRETT BODE (SENIOR ADVISOR),
     GIUSEPPE BARCA,
     COLLEEN BERTONI,
     KRISTOPHER KEIPERT (ADVISOR),
     SAROM S. LEANG (DEVELOPMENT LEAD),
     BUU PHAM,
     JACKSON HAYES (WEBSITE ADMINISTRATOR),
     PENG XU

 EXECUTION OF GAMESS BEGUN 19:56:13 20-OCT-2025    

            ECHO OF THE FIRST FEW INPUT CARDS -
 INPUT CARD> $CONTRL SCFTYP=UHF ICHARG=0 MULT=1                                             
 INPUT CARD> RUNTYP=OPTIMIZE                                                                
 INPUT CARD> $END                                                                           
 INPUT CARD> $BASIS GBASIS=N31 NGAUSS=6 NDFUNC=1 $END                                       
 INPUT CARD> $DATA                                                                          
 INPUT CARD> ... this is comment ...                                                        
 INPUT CARD> C1                                                                             
 INPUT CARD> NA   11   0.00000000   0.00000000  -1.44947936                                 
 INPUT CARD> CL   17   0.00000000   0.00000000   0.94360136                                 
 INPUT CARD> $END                                                                           
 INPUT CARD>                                                                                
      1000000 WORDS OF MEMORY AVAILABLE

     BASIS OPTIONS
     -------------
     GBASIS=N31          IGAUSS=       6      POLAR=POPN31  
     NDFUNC=       1     NFFUNC=       0     DIFFSP=       F
     NPFUNC=       0      DIFFS=       F     BASNAM=        


     RUN TITLE
     ---------
  ... this is comment ...                                                        

 THE POINT GROUP OF THE MOLECULE IS C1      
 THE ORDER OF THE PRINCIPAL AXIS IS     0

 ATOM      ATOMIC                      COORDINATES (BOHR)
           CHARGE         X                   Y                   Z
 NA         11.0     0.0000000000        0.0000000000       -2.7391188153
 CL         17.0     0.0000000000        0.0000000000        1.7831480120

          INTERNUCLEAR DISTANCES (ANGS.)
          ------------------------------

                1 NA         2 CL    

   1 NA      0.0000000    2.3930807 *
   2 CL      2.3930807 *  0.0000000  

  * ... LESS THAN  3.000


     ATOMIC BASIS SET
     ----------------
 THE CONTRACTED PRIMITIVE FUNCTIONS HAVE BEEN UNNORMALIZED
 THE CONTRACTED BASIS FUNCTIONS ARE NOW NORMALIZED TO UNITY

  SHELL TYPE  PRIMITIVE        EXPONENT          CONTRACTION COEFFICIENT(S)

 NA        

      1   S       1          9993.2000000    0.001937659277
      1   S       2          1499.8900000    0.014806994478
      1   S       3           341.9510000    0.072705472884
      1   S       4            94.6796000    0.252628905780
      1   S       5            29.7345000    0.493241816042
      1   S       6            10.0063000    0.313168883201

      2   L       7           150.9630000   -0.003542083504    0.005001659710
      2   L       8            35.5878000   -0.043958843482    0.035510897939
      2   L       9            11.1683000   -0.109752108561    0.142824991711
      2   L      10             3.9020100    0.187398185364    0.338619980347
      2   L      11             1.3817700    0.646699639678    0.451578973792
      2   L      12             0.4663820    0.306058302735    0.273270984140

      3   L      13             0.4979660   -0.248503159333   -0.023022500428
      3   L      14             0.0843529   -0.131704084445    0.950359017650
      3   L      15             0.0666350    1.233520790897    0.059857901112

      4   L      16             0.0259544    1.000000000000    1.000000000000

      5   D      17             0.1750000    1.000000000000

 CL        

      6   S      18         25180.1000000    0.001832959848
      6   S      19          3780.3500000    0.014034198835
      6   S      20           860.4740000    0.069097394263
      6   S      21           242.1450000    0.237451980285
      6   S      22            77.3349000    0.483033959896
      6   S      23            26.2470000    0.339855971783

      7   L      24           491.7650000   -0.002297391417    0.003989400879
      7   L      25           116.9840000   -0.030713718938    0.030317706682
      7   L      26            37.4153000   -0.112528069386    0.129880028625
      7   L      27            13.7834000    0.045016327757    0.327951072278
      7   L      28             5.4521500    0.589353363399    0.453527099954
      7   L      29             2.2258800    0.465206286849    0.252154055573

      8   L      30             3.1864900   -0.251831288046   -0.014299314719
      8   L      31             1.1442700    0.061589315012    0.323572333073
      8   L      32             0.4203770    1.060185422549    0.743507765337

      9   L      33             0.1426570    1.000000000000    1.000000000000

     10   D      34             0.7500000    1.000000000000

 TOTAL NUMBER OF BASIS SET SHELLS             =   10
 NUMBER OF CARTESIAN GAUSSIAN BASIS FUNCTIONS =   38
 NUMBER OF ELECTRONS                          =   28
 CHARGE OF MOLECULE                           =    0
 SPIN MULTIPLICITY                            =    1
 NUMBER OF OCCUPIED ORBITALS (ALPHA)          =   14
 NUMBER OF OCCUPIED ORBITALS (BETA )          =   14
 TOTAL NUMBER OF ATOMS                        =    2
 THE NUCLEAR REPULSION ENERGY IS       41.3509434850

 THIS MOLECULE IS RECOGNIZED AS BEING LINEAR,
 ORBITAL LZ DEGENERACY TOLERANCE ETOLLZ= 1.00E-06

     $CONTRL OPTIONS
     ---------------
 SCFTYP=UHF          RUNTYP=OPTIMIZE     EXETYP=RUN     
 MPLEVL=       0     CITYP =NONE         CCTYP =NONE         VBTYP =NONE    
 DFTTYP=NONE         TDDFT =NONE    
 MULT  =       1     ICHARG=       0     NZVAR =       0     COORD =UNIQUE  
 PP    =NONE         RELWFN=NONE         LOCAL =NONE         NUMGRD=       F
 ISPHER=      -1     NOSYM =       0     MAXIT =      30     UNITS =ANGS    
 PLTORB=       F     MOLPLT=       F     AIMPAC=       F     FRIEND=        
 NPRINT=       7     IREST =       0     GEOM  =INPUT   
 NORMF =       0     NORMP =       0     ITOL  =      20     ICUT  =       9
 INTTYP=BEST         GRDTYP=BEST         QMTTOL= 1.0E-06

     $SYSTEM OPTIONS
     ---------------
  REPLICATED MEMORY=     1000000 WORDS (ON EVERY NODE).
 DISTRIBUTED MEMDDI=           0 MILLION WORDS IN AGGREGATE,
 MEMDDI DISTRIBUTED OVER   1 PROCESSORS IS           0 WORDS/PROCESSOR.
 TOTAL MEMORY REQUESTED ON EACH PROCESSOR=     1000000 WORDS.
 TIMLIM=      525600.00 MINUTES, OR     365.0 DAYS.
 PARALL= F  BALTYP=  DLB     KDIAG=    0  COREFL= F
 MXSEQ2=     300 MXSEQ3=     150  mem10=         0  mem22=         0

          ----------------
          PROPERTIES INPUT
          ----------------

     MOMENTS            FIELD           POTENTIAL          DENSITY
 IEMOM =       1   IEFLD =       0   IEPOT =       0   IEDEN =       0
 WHERE =COMASS     WHERE =NUCLEI     WHERE =NUCLEI     WHERE =NUCLEI  
 OUTPUT=BOTH       OUTPUT=BOTH       OUTPUT=BOTH       OUTPUT=BOTH    
 IEMINT=       0   IEFINT=       0                     IEDINT=       0
                                                       MORB  =       0
          EXTRAPOLATION IN EFFECT
          SOSCF IN EFFECT
          DIIS or SOSCF will be reset if energy rises
 ORBITAL PRINTING OPTION: NPREO=     1    38     2     1

     -------------------------------
     INTEGRAL TRANSFORMATION OPTIONS
     -------------------------------
     NWORD  =            0
     CUTTRF = 1.0E-09     MPTRAN =       0
     DIRTRF =       F     AOINTS =DUP     

          ----------------------
          INTEGRAL INPUT OPTIONS
          ----------------------
 NOPK  =       1 NORDER=       0 SCHWRZ=       F

     ------------------------------------------
     THE POINT GROUP IS C1 , NAXIS= 0, ORDER= 1
     ------------------------------------------

     DIMENSIONS OF THE SYMMETRY SUBSPACES ARE
 A   =   38

 ..... DONE SETTING UP THE RUN .....
 STEP CPU TIME =     0.00 TOTAL CPU TIME =          0.0 (      0.0 MIN)
 TOTAL WALL CLOCK TIME=          0.0 SECONDS, CPU UTILIZATION IS    97.35%


          -----------------------------
          STATIONARY POINT LOCATION RUN
          -----------------------------

 OBTAINING INITIAL HESSIAN, HESS=GUESS   
 CARTESIAN COORDINATE OPTIMIZATION USING BADGER'S RULE FORCE CONSTANT GUESS

          PARAMETERS CONTROLLING GEOMETRY SEARCH ARE
          METHOD =QA                  UPHESS =BFGS    
          NNEG   =         0          NFRZ   =         0
          NSTEP  =        50          IFOLOW =         1
          HESS   =GUESS               RESTAR =         F
          IHREP  =         0          HSSEND =         F
          NPRT   =         0          NPUN   =         0
          OPTTOL = 1.000E-04          RMIN   = 1.500E-03
          RMAX   = 1.000E-01          RLIM   = 7.000E-02
          DXMAX  = 3.000E-01          PURIFY =         F
          MOVIE  =         F          TRUPD  =         T
          TRMAX  = 5.000E-01          TRMIN  = 5.000E-02
          ITBMAT =         5          STPT   =         F
          STSTEP = 1.000E-02          PROJCT=          T

 BEGINNING GEOMETRY SEARCH POINT NSERCH=   0 ...

 COORDINATES OF ALL ATOMS ARE (ANGS)
   ATOM   CHARGE       X              Y              Z
 ------------------------------------------------------------
 NA         11.0   0.0000000000   0.0000000000  -1.4494793600
 CL         17.0   0.0000000000   0.0000000000   0.9436013600

          ********************
          1 ELECTRON INTEGRALS
          ********************
 ...... END OF ONE-ELECTRON INTEGRALS ......
 STEP CPU TIME =     0.00 TOTAL CPU TIME =          0.0 (      0.0 MIN)
 TOTAL WALL CLOCK TIME=          0.0 SECONDS, CPU UTILIZATION IS    97.63%

          -------------
          GUESS OPTIONS
          -------------
          GUESS =HUCKEL            NORB  =       0          NORDER=       0
          MIX   =       F          PRTMO =       F          PUNMO =       F
          TOLZ  = 1.0E-08          TOLE  = 1.0E-05
          SYMDEN=       F          PURIFY=       F

 INITIAL GUESS ORBITALS GENERATED BY HUCKEL   ROUTINE.
 HUCKEL GUESS REQUIRES     13331 WORDS.

 SYMMETRIES FOR INITIAL GUESS ORBITALS FOLLOW.  ALPHA SET(S).
    14 ORBITALS ARE OCCUPIED (   10 CORE ORBITALS).
    11=A       12=A       13=A       14=A       15=A       16=A       17=A   
    18=A       19=A       20=A       21=A       22=A       23=A       24=A   

 SYMMETRIES FOR INITIAL GUESS ORBITALS FOLLOW.   BETA SET(S).
    14 ORBITALS ARE OCCUPIED (   10 CORE ORBITALS).
    11=A       12=A       13=A       14=A       15=A       16=A       17=A   
    18=A       19=A       20=A       21=A       22=A       23=A       24=A   
 ...... END OF INITIAL ORBITAL SELECTION ......
 STEP CPU TIME =     0.00 TOTAL CPU TIME =          0.0 (      0.0 MIN)
 TOTAL WALL CLOCK TIME=          0.0 SECONDS, CPU UTILIZATION IS    98.01%

                    ----------------------
                    AO INTEGRAL TECHNOLOGY
                    ----------------------
     S,P,L SHELL ROTATED AXIS INTEGRALS, REPROGRAMMED BY
        KAZUYA ISHIMURA (IMS) AND JOSE SIERRA (SYNSTAR).
     S,P,D,L SHELL ROTATED AXIS INTEGRALS PROGRAMMED BY
        KAZUYA ISHIMURA (INSTITUTE FOR MOLECULAR SCIENCE).
     S,P,D,F,G SHELL TO TOTAL QUARTET ANGULAR MOMENTUM SUM 5,
        ERIC PROGRAM BY GRAHAM FLETCHER (ELORET AND NASA ADVANCED
        SUPERCOMPUTING DIVISION, AMES RESEARCH CENTER).
     S,P,D,F,G,L SHELL GENERAL RYS QUADRATURE PROGRAMMED BY
        MICHEL DUPUIS (PACIFIC NORTHWEST NATIONAL LABORATORY).

          --------------------
          2 ELECTRON INTEGRALS
          --------------------

 THE -PK- OPTION IS OFF, THE INTEGRALS ARE NOT IN SUPERMATRIX FORM.
 STORING   15000 INTEGRALS/RECORD ON DISK, USING 12 BYTES/INTEGRAL.
 TWO ELECTRON INTEGRAL EVALUATION REQUIRES   90451 WORDS OF MEMORY.
 II,JST,KST,LST =  1  1  1  1 NREC =         1 INTLOC =    1
 II,JST,KST,LST =  2  1  1  1 NREC =         1 INTLOC =    2
 II,JST,KST,LST =  3  1  1  1 NREC =         1 INTLOC =   34
 II,JST,KST,LST =  4  1  1  1 NREC =         1 INTLOC =  214
 II,JST,KST,LST =  5  1  1  1 NREC =         1 INTLOC =  776
 II,JST,KST,LST =  6  1  1  1 NREC =         1 INTLOC = 2864
 II,JST,KST,LST =  7  1  1  1 NREC =         1 INTLOC = 3913
 II,JST,KST,LST =  8  1  1  1 NREC =         1 INTLOC = 9991
 II,JST,KST,LST =  9  1  1  1 NREC =         2 INTLOC = 5368
 II,JST,KST,LST = 10  1  1  1 NREC =         3 INTLOC = 6033
 TOTAL NUMBER OF NONZERO TWO-ELECTRON INTEGRALS =               69869
          5 INTEGRAL RECORDS WERE STORED ON DISK FILE  8.
  ...... END OF TWO-ELECTRON INTEGRALS .....
 STEP CPU TIME =     0.01 TOTAL CPU TIME =          0.0 (      0.0 MIN)
 TOTAL WALL CLOCK TIME=          0.0 SECONDS, CPU UTILIZATION IS    99.38%

          ---------------------------
                  UHF SCF CALCULATION
          ---------------------------

     NUCLEAR ENERGY =        41.3509434850
     MAXIT = 30     NPUNCH=  2     MULT=  1
     EXTRAP=T  DAMP=F  SHIFT=F  RSTRCT=F  DIIS=F  SOSCF=T
     DENSITY MATRIX CONV=  1.00E-05
     SOSCF WILL OPTIMIZE     336 ALPHA AND     336 BETA ROTATION ANGLES.
     SOGTOL= 2.500E-01
     MEMORY REQUIRED FOR UHF/ROHF ITERS=     49752 WORDS.

 ITER EX      TOTAL ENERGY        E CHANGE  DENSITY CHANGE    ORB. GRAD 
   1  0     -621.1451952337  -621.1451952337   0.203063930   0.000000000
          ---------------START SECOND ORDER SCF---------------
   2  1     -621.3925859089    -0.2473906752   0.095911585   0.023210977
   3  2     -621.3989388674    -0.0063529584   0.021306501   0.004578392
   4  3     -621.3995641973    -0.0006253300   0.007447133   0.001676787
   5  4     -621.3996118724    -0.0000476751   0.003287486   0.000509473
   6  5     -621.3996161809    -0.0000043085   0.000311459   0.000090755
   7  6     -621.3996162759    -0.0000000950   0.000068534   0.000022665
   8  7     -621.3996162806    -0.0000000047   0.000011787   0.000003405
   9  8     -621.3996162808    -0.0000000001   0.000004941   0.000000752
  10  9     -621.3996162808    -0.0000000000   0.000000567   0.000000075

          -----------------
          DENSITY CONVERGED
          -----------------
     TIME TO FORM FOCK OPERATORS=       0.0 SECONDS (       0.0 SEC/ITER)
     TIME TO SOLVE SCF EQUATIONS=       0.0 SECONDS (       0.0 SEC/ITER)

 FINAL UHF ENERGY IS     -621.3996162808 AFTER  10 ITERATIONS

          --------------------
          SPIN SZ   =    0.000
          S-SQUARED =   -0.000
          --------------------

 LZ VALUE ANALYSIS FOR THE MOS
 ----------------------------------------
 MO     1 (    1) HAS LZ(WEIGHT)= 0.00(100.0%) 
 MO     2 (    2) HAS LZ(WEIGHT)= 0.00(100.0%) 
 MO     3 (    3) HAS LZ(WEIGHT)= 0.00(100.0%) 
 MO     4 (    4) HAS LZ(WEIGHT)= 0.00(100.0%) 
 MO     5 (    5) HAS LZ(WEIGHT)=-1.00( 50.0%)  1.00( 50.0%) 
 MO     6 (    5) HAS LZ(WEIGHT)=-1.00( 50.0%)  1.00( 50.0%) 
 MO     7 (    6) HAS LZ(WEIGHT)= 0.00(100.0%) 
 MO     8 (    7) HAS LZ(WEIGHT)=-1.00( 50.0%)  1.00( 50.0%) 
 MO     9 (    7) HAS LZ(WEIGHT)=-1.00( 50.0%)  1.00( 50.0%) 
 MO    10 (    8) HAS LZ(WEIGHT)= 0.00(100.0%) 
 MO    11 (    9) HAS LZ(WEIGHT)= 0.00(100.0%) 
 MO    12 (   10) HAS LZ(WEIGHT)= 0.00(100.0%) 
 MO    13 (   11) HAS LZ(WEIGHT)=-1.00( 50.0%)  1.00( 50.0%) 
 MO    14 (   11) HAS LZ(WEIGHT)=-1.00( 50.0%)  1.00( 50.0%) 
 MO    15 (   12) HAS LZ(WEIGHT)= 0.00(100.0%) 
 MO    16 (   13) HAS LZ(WEIGHT)=-1.00( 50.0%)  1.00( 50.0%) 
 MO    17 (   13) HAS LZ(WEIGHT)=-1.00( 50.0%)  1.00( 50.0%) 
 MO    18 (   14) HAS LZ(WEIGHT)= 0.00(100.0%) 
 MO    19 (   15) HAS LZ(WEIGHT)= 0.00(100.0%) 
 MO    20 (   16) HAS LZ(WEIGHT)=-1.00( 50.0%)  1.00( 50.0%) 
 MO    21 (   16) HAS LZ(WEIGHT)=-1.00( 50.0%)  1.00( 50.0%) 
 MO    22 (   17) HAS LZ(WEIGHT)= 0.00(100.0%) 
 MO    23 (   18) HAS LZ(WEIGHT)=-2.00( 50.0%)  2.00( 50.0%) 
 MO    24 (   18) HAS LZ(WEIGHT)=-2.00( 50.0%)  2.00( 50.0%) 
 MO    25 (   19) HAS LZ(WEIGHT)=-1.00( 50.0%)  1.00( 50.0%) 
 MO    26 (   19) HAS LZ(WEIGHT)=-1.00( 50.0%)  1.00( 50.0%) 
 MO    27 (   20) HAS LZ(WEIGHT)= 0.00(100.0%) 
 MO    28 (   21) HAS LZ(WEIGHT)= 0.00(100.0%) 
 MO    29 (   22) HAS LZ(WEIGHT)=-1.00( 50.0%)  1.00( 50.0%) 
 MO    30 (   22) HAS LZ(WEIGHT)=-1.00( 50.0%)  1.00( 50.0%) 
 MO    31 (   23) HAS LZ(WEIGHT)= 0.00(100.0%) 
 MO    32 (   24) HAS LZ(WEIGHT)= 0.00(100.0%) 
 MO    33 (   25) HAS LZ(WEIGHT)=-2.00( 50.0%)  2.00( 50.0%) 
 MO    34 (   25) HAS LZ(WEIGHT)=-2.00( 50.0%)  2.00( 50.0%) 
 MO    35 (   26) HAS LZ(WEIGHT)=-1.00( 50.0%)  1.00( 50.0%) 
 MO    36 (   26) HAS LZ(WEIGHT)=-1.00( 50.0%)  1.00( 50.0%) 
 MO    37 (   27) HAS LZ(WEIGHT)= 0.00(100.0%) 
 MO    38 (   28) HAS LZ(WEIGHT)= 0.00(100.0%) 

  ----- ALPHA SET ----- 

          ------------
          EIGENVECTORS
          ------------

                      1          2          3          4          5
                 -104.6894   -40.5213   -10.4214    -7.8895    -7.8888
                     A          A          A          A          A   
    1  NA 1  S    0.000002   0.997909  -0.000006   0.000028  -0.000000
    2  NA 1  S   -0.000027   0.008883   0.000271  -0.000634  -0.000000
    3  NA 1  X   -0.000000   0.000000   0.000000   0.000000   0.000000
    4  NA 1  Y   -0.000000   0.000000   0.000000   0.000000   0.000019
    5  NA 1  Z   -0.000008  -0.000065   0.000084  -0.000157  -0.000000
    6  NA 1  S   -0.000058  -0.000926   0.002545  -0.004964  -0.000000
    7  NA 1  X   -0.000000   0.000000   0.000000   0.000000   0.000003
    8  NA 1  Y   -0.000000   0.000000   0.000000   0.000000   0.000349
    9  NA 1  Z   -0.000059   0.000022   0.002162  -0.001722  -0.000000
   10  NA 1  S   -0.000094   0.000400   0.000178   0.001728  -0.000000
   11  NA 1  X   -0.000000   0.000000   0.000000   0.000000   0.000004
   12  NA 1  Y   -0.000000   0.000000   0.000000   0.000000   0.000444
   13  NA 1  Z   -0.000091  -0.000083   0.000366   0.000699  -0.000000
   14  NA 1 XX   -0.000004  -0.000137  -0.000635   0.000790  -0.000000
   15  NA 1 YY   -0.000004  -0.000137  -0.000635   0.000790  -0.000000
   16  NA 1 ZZ    0.000010  -0.000248   0.000630   0.001088  -0.000000
   17  NA 1 XY   -0.000000   0.000000   0.000000   0.000000  -0.000000
   18  NA 1 XZ   -0.000000   0.000000   0.000000   0.000000   0.000003
   19  NA 1 YZ   -0.000000   0.000000   0.000000   0.000000   0.000355
   20  CL 2  S    0.996116   0.000001  -0.286734  -0.000537  -0.000000
   21  CL 2  S    0.014635   0.000009   1.030745   0.001893  -0.000000
   22  CL 2  X   -0.000000   0.000000   0.000000   0.000000   0.008975
   23  CL 2  Y   -0.000000   0.000000   0.000000   0.000000   0.993398
   24  CL 2  Z   -0.000023   0.000054  -0.001535   0.993272  -0.000000
   25  CL 2  S   -0.017748  -0.000042   0.026515  -0.001337  -0.000000
   26  CL 2  X   -0.000000   0.000000   0.000000   0.000000   0.000188
   27  CL 2  Y   -0.000000   0.000000   0.000000   0.000000   0.020793
   28  CL 2  Z    0.000037  -0.000261  -0.000693   0.021485  -0.000000
   29  CL 2  S    0.001637   0.000060  -0.009150   0.001810  -0.000000
   30  CL 2  X   -0.000000   0.000000   0.000000   0.000000  -0.000045
   31  CL 2  Y   -0.000000   0.000000   0.000000   0.000000  -0.005022
   32  CL 2  Z   -0.000081   0.000235   0.002081  -0.006320  -0.000000
   33  CL 2 XX    0.006241   0.000068  -0.001345   0.000164  -0.000000
   34  CL 2 YY    0.006241   0.000068  -0.001345   0.000164  -0.000000
   35  CL 2 ZZ    0.006244   0.000086  -0.001514  -0.000060  -0.000000
   36  CL 2 XY   -0.000000   0.000000   0.000000   0.000000  -0.000000
   37  CL 2 XZ   -0.000000   0.000000   0.000000   0.000000  -0.000001
   38  CL 2 YZ   -0.000000   0.000000   0.000000   0.000000  -0.000088

                      6          7          8          9         10
                   -7.8888    -2.8359    -1.5579    -1.5579    -1.5573
                     A          A          A          A          A   
    1  NA 1  S    0.000000  -0.245788   0.000000   0.000000  -0.003742
    2  NA 1  S    0.000000   1.027850   0.000000   0.000000   0.015392
    3  NA 1  X    0.000019   0.000000  -0.069135   0.995956  -0.000000
    4  NA 1  Y   -0.000000   0.000000   0.995956   0.069135  -0.000000
    5  NA 1  Z    0.000000  -0.015008   0.000000   0.000000   0.997364
    6  NA 1  S    0.000000   0.001715   0.000000   0.000000  -0.007104
    7  NA 1  X    0.000349   0.000000  -0.000614   0.008850  -0.000000
    8  NA 1  Y   -0.000003   0.000000   0.008850   0.000614  -0.000000
    9  NA 1  Z    0.000000  -0.003801   0.000000   0.000000   0.003524
   10  NA 1  S    0.000000   0.000972   0.000000   0.000000   0.001924
   11  NA 1  X    0.000444   0.000000   0.000120  -0.001722  -0.000000
   12  NA 1  Y   -0.000004   0.000000  -0.001722  -0.000120  -0.000000
   13  NA 1  Z    0.000000   0.000950   0.000000   0.000000  -0.000786
   14  NA 1 XX    0.000000  -0.002231   0.000000   0.000000   0.002469
   15  NA 1 YY    0.000000  -0.002231   0.000000   0.000000   0.002469
   16  NA 1 ZZ    0.000000  -0.004804   0.000000   0.000000  -0.008294
   17  NA 1 XY    0.000000   0.000000   0.000000   0.000000  -0.000000
   18  NA 1 XZ    0.000355   0.000000   0.000294  -0.004235  -0.000000
   19  NA 1 YZ   -0.000003   0.000000  -0.004235  -0.000294  -0.000000
   20  CL 2  S    0.000000   0.000110   0.000000   0.000000   0.001620
   21  CL 2  S    0.000000  -0.000601   0.000000   0.000000  -0.007630
   22  CL 2  X    0.993398   0.000000   0.000045  -0.000652  -0.000000
   23  CL 2  Y   -0.008975   0.000000  -0.000652  -0.000045  -0.000000
   24  CL 2  Z    0.000000   0.000591   0.000000   0.000000   0.004629
   25  CL 2  S    0.000000   0.000018   0.000000   0.000000   0.011246
   26  CL 2  X    0.020793   0.000000  -0.000102   0.001472  -0.000000
   27  CL 2  Y   -0.000188   0.000000   0.001472   0.000102  -0.000000
   28  CL 2  Z    0.000000  -0.001553   0.000000   0.000000  -0.011984
   29  CL 2  S    0.000000   0.003304   0.000000   0.000000   0.011384
   30  CL 2  X   -0.005022   0.000000  -0.000092   0.001321  -0.000000
   31  CL 2  Y    0.000045   0.000000   0.001321   0.000092  -0.000000
   32  CL 2  Z    0.000000  -0.002141   0.000000   0.000000  -0.004997
   33  CL 2 XX    0.000000  -0.000040   0.000000   0.000000  -0.000634
   34  CL 2 YY    0.000000  -0.000040   0.000000   0.000000  -0.000634
   35  CL 2 ZZ    0.000000   0.000999   0.000000   0.000000   0.004671
   36  CL 2 XY    0.000000   0.000000   0.000000   0.000000  -0.000000
   37  CL 2 XZ   -0.000088   0.000000   0.000074  -0.001069  -0.000000
   38  CL 2 YZ    0.000001   0.000000  -0.001069  -0.000074  -0.000000

                     11         12         13         14         15
                   -0.9356    -0.3634    -0.3474    -0.3474    -0.0167
                     A          A          A          A          A   
    1  NA 1  S    0.005128  -0.014923   0.000000  -0.000000   0.019957
    2  NA 1  S   -0.028673   0.080314   0.000000  -0.000000  -0.165358
    3  NA 1  X    0.000000   0.000000  -0.006288  -0.027978   0.000000
    4  NA 1  Y    0.000000   0.000000  -0.027978   0.006288   0.000000
    5  NA 1  Z   -0.051616   0.080224   0.000000  -0.000000   0.065743
    6  NA 1  S    0.003011  -0.161998   0.000000  -0.000000  -0.375129
    7  NA 1  X    0.000000   0.000000   0.010735   0.047763   0.000000
    8  NA 1  Y    0.000000   0.000000   0.047763  -0.010735   0.000000
    9  NA 1  Z    0.020063  -0.106791   0.000000  -0.000000  -0.126013
   10  NA 1  S    0.002098   0.028967   0.000000  -0.000000   1.021975
   11  NA 1  X    0.000000   0.000000   0.006191   0.027545   0.000000
   12  NA 1  Y    0.000000   0.000000   0.027545  -0.006191   0.000000
   13  NA 1  Z   -0.004006   0.035295   0.000000  -0.000000  -0.441926
   14  NA 1 XX    0.001136   0.013428   0.000000  -0.000000   0.099874
   15  NA 1 YY    0.001136   0.013428   0.000000  -0.000000   0.099874
   16  NA 1 ZZ    0.020950  -0.050131   0.000000  -0.000000   0.109084
   17  NA 1 XY    0.000000   0.000000   0.000000  -0.000000   0.000000
   18  NA 1 XZ    0.000000   0.000000   0.007191   0.031997   0.000000
   19  NA 1 YZ    0.000000   0.000000   0.031997  -0.007191   0.000000
   20  CL 2  S    0.080571   0.005860   0.000000  -0.000000  -0.003238
   21  CL 2  S   -0.372906  -0.026943   0.000000  -0.000000   0.013323
   22  CL 2  X    0.000000   0.000000  -0.058208  -0.258986   0.000000
   23  CL 2  Y    0.000000   0.000000  -0.258986   0.058208   0.000000
   24  CL 2  Z    0.008670  -0.262516   0.000000  -0.000000  -0.031126
   25  CL 2  S    0.711721   0.062402   0.000000  -0.000000  -0.036247
   26  CL 2  X    0.000000   0.000000   0.147771   0.657484   0.000000
   27  CL 2  Y    0.000000   0.000000   0.657484  -0.147771   0.000000
   28  CL 2  Z   -0.018524   0.666567   0.000000  -0.000000   0.078519
   29  CL 2  S    0.371192   0.084392   0.000000  -0.000000   0.010423
   30  CL 2  X    0.000000   0.000000   0.095657   0.425611   0.000000
   31  CL 2  Y    0.000000   0.000000   0.425611  -0.095657   0.000000
   32  CL 2  Z   -0.011618   0.373873   0.000000  -0.000000   0.077061
   33  CL 2 XX   -0.001842   0.004399   0.000000  -0.000000  -0.001035
   34  CL 2 YY   -0.001842   0.004399   0.000000  -0.000000  -0.001035
   35  CL 2 ZZ    0.005013  -0.017389   0.000000  -0.000000  -0.000651
   36  CL 2 XY    0.000000   0.000000   0.000000  -0.000000   0.000000
   37  CL 2 XZ    0.000000   0.000000  -0.002722  -0.012112   0.000000
   38  CL 2 YZ    0.000000   0.000000  -0.012112   0.002722   0.000000

                     16         17         18         19         20
                    0.0437     0.0437     0.0839     0.1170     0.1946
                     A          A          A          A          A   
    1  NA 1  S    0.000000  -0.000000   0.017796   0.027218   0.000000
    2  NA 1  S    0.000000  -0.000000  -0.094557   0.082033   0.000000
    3  NA 1  X    0.011461  -0.053686   0.000000  -0.000000  -0.211278
    4  NA 1  Y   -0.053686  -0.011461   0.000000  -0.000000  -0.003751
    5  NA 1  Z    0.000000  -0.000000   0.018134   0.099241   0.000000
    6  NA 1  S    0.000000  -0.000000   0.448785   3.564872   0.000000
    7  NA 1  X    0.003885  -0.018199   0.000000  -0.000000   1.379841
    8  NA 1  Y   -0.018199  -0.003885   0.000000  -0.000000   0.024498
    9  NA 1  Z    0.000000  -0.000000  -0.365026  -0.566065   0.000000
   10  NA 1  S    0.000000  -0.000000   0.287867  -2.338568   0.000000
   11  NA 1  X   -0.217147   1.017155   0.000000  -0.000000  -0.879804
   12  NA 1  Y    1.017155   0.217147   0.000000  -0.000000  -0.015620
   13  NA 1  Z    0.000000  -0.000000   1.190317   0.095102   0.000000
   14  NA 1 XX    0.000000  -0.000000  -0.028927  -0.598136   0.000000
   15  NA 1 YY    0.000000  -0.000000  -0.028927  -0.598136   0.000000
   16  NA 1 ZZ    0.000000  -0.000000  -0.124025  -0.585862   0.000000
   17  NA 1 XY    0.000000  -0.000000   0.000000  -0.000000   0.000000
   18  NA 1 XZ    0.007189  -0.033676   0.000000  -0.000000  -0.103785
   19  NA 1 YZ   -0.033676  -0.007189   0.000000  -0.000000  -0.001843
   20  CL 2  S    0.000000  -0.000000  -0.011795   0.002338   0.000000
   21  CL 2  S    0.000000  -0.000000   0.067660  -0.021186   0.000000
   22  CL 2  X   -0.007601   0.035603   0.000000  -0.000000   0.021183
   23  CL 2  Y    0.035603   0.007601   0.000000  -0.000000   0.000376
   24  CL 2  Z    0.000000  -0.000000  -0.023398  -0.024114   0.000000
   25  CL 2  S    0.000000  -0.000000  -0.091911  -0.002563   0.000000
   26  CL 2  X    0.017277  -0.080929   0.000000  -0.000000  -0.053307
   27  CL 2  Y   -0.080929  -0.017277   0.000000  -0.000000  -0.000946
   28  CL 2  Z    0.000000  -0.000000   0.069419   0.058138   0.000000
   29  CL 2  S    0.000000  -0.000000  -0.421220   0.222122   0.000000
   30  CL 2  X    0.037280  -0.174625   0.000000  -0.000000  -0.097515
   31  CL 2  Y   -0.174625  -0.037280   0.000000  -0.000000  -0.001731
   32  CL 2  Z    0.000000  -0.000000  -0.061028   0.026333   0.000000
   33  CL 2 XX    0.000000  -0.000000   0.015865  -0.012597   0.000000
   34  CL 2 YY    0.000000  -0.000000   0.015865  -0.012597   0.000000
   35  CL 2 ZZ    0.000000  -0.000000   0.012127   0.006021   0.000000
   36  CL 2 XY    0.000000  -0.000000   0.000000  -0.000000   0.000000
   37  CL 2 XZ    0.000859  -0.004026   0.000000  -0.000000  -0.024565
   38  CL 2 YZ   -0.004026  -0.000859   0.000000  -0.000000  -0.000436

                     21         22         23         24         25
                    0.1946     0.2663     0.4453     0.4453     0.4717
                     A          A          A          A          A   
    1  NA 1  S    0.000000   0.016651  -0.000000   0.000000  -0.000000
    2  NA 1  S    0.000000   0.059341  -0.000000   0.000000  -0.000000
    3  NA 1  X    0.003751   0.000000  -0.000000   0.000000  -0.023642
    4  NA 1  Y   -0.211278   0.000000  -0.000000   0.000000   0.004076
    5  NA 1  Z    0.000000  -0.155410  -0.000000   0.000000  -0.000000
    6  NA 1  S    0.000000   2.413309  -0.000000   0.000000  -0.000000
    7  NA 1  X   -0.024498   0.000000  -0.000000   0.000000   0.174772
    8  NA 1  Y    1.379841   0.000000  -0.000000   0.000000  -0.030133
    9  NA 1  Z    0.000000   1.579533  -0.000000   0.000000  -0.000000
   10  NA 1  S    0.000000  -1.007593  -0.000000   0.000000  -0.000000
   11  NA 1  X    0.015620   0.000000  -0.000000   0.000000  -0.017889
   12  NA 1  Y   -0.879804   0.000000  -0.000000   0.000000   0.003084
   13  NA 1  Z    0.000000  -0.754899  -0.000000   0.000000  -0.000000
   14  NA 1 XX    0.000000  -0.298283   0.000003  -0.865103  -0.000000
   15  NA 1 YY    0.000000  -0.298283  -0.000003   0.865103  -0.000000
   16  NA 1 ZZ    0.000000  -0.588662  -0.000000   0.000000  -0.000000
   17  NA 1 XY    0.000000   0.000000   0.998935   0.000003  -0.000000
   18  NA 1 XZ    0.001843   0.000000  -0.000000   0.000000   0.997219
   19  NA 1 YZ   -0.103785   0.000000  -0.000000   0.000000  -0.171936
   20  CL 2  S    0.000000  -0.008558  -0.000000   0.000000  -0.000000
   21  CL 2  S    0.000000   0.053905  -0.000000   0.000000  -0.000000
   22  CL 2  X   -0.000376   0.000000  -0.000000   0.000000   0.068541
   23  CL 2  Y    0.021183   0.000000  -0.000000   0.000000  -0.011818
   24  CL 2  Z    0.000000  -0.069645  -0.000000   0.000000  -0.000000
   25  CL 2  S    0.000000  -0.058285  -0.000000   0.000000  -0.000000
   26  CL 2  X    0.000946   0.000000  -0.000000   0.000000  -0.204338
   27  CL 2  Y   -0.053307   0.000000  -0.000000   0.000000   0.035231
   28  CL 2  Z    0.000000   0.156845  -0.000000   0.000000  -0.000000
   29  CL 2  S    0.000000  -0.557359  -0.000000   0.000000  -0.000000
   30  CL 2  X    0.001731   0.000000  -0.000000   0.000000  -0.159322
   31  CL 2  Y   -0.097515   0.000000  -0.000000   0.000000   0.027470
   32  CL 2  Z    0.000000   0.605216  -0.000000   0.000000  -0.000000
   33  CL 2 XX    0.000000   0.003467   0.000000  -0.024560  -0.000000
   34  CL 2 YY    0.000000   0.003467  -0.000000   0.024560  -0.000000
   35  CL 2 ZZ    0.000000   0.034726  -0.000000   0.000000  -0.000000
   36  CL 2 XY    0.000000   0.000000   0.028360   0.000000  -0.000000
   37  CL 2 XZ    0.000436   0.000000  -0.000000   0.000000  -0.102004
   38  CL 2 YZ   -0.024565   0.000000  -0.000000   0.000000   0.017587

                     26         27         28         29         30
                    0.4717     0.5338     0.6029     0.7739     0.7739
                     A          A          A          A          A   
    1  NA 1  S    0.000000   0.001923   0.006877  -0.000000   0.000000
    2  NA 1  S    0.000000   0.126491   0.157687  -0.000000   0.000000
    3  NA 1  X   -0.004076   0.000000   0.000000  -0.000107   0.000277
    4  NA 1  Y   -0.023642   0.000000   0.000000   0.000277   0.000107
    5  NA 1  Z    0.000000   0.007685  -0.047935  -0.000000   0.000000
    6  NA 1  S    0.000000   6.263812   3.908096  -0.000000   0.000000
    7  NA 1  X    0.030133   0.000000   0.000000   0.058917  -0.152008
    8  NA 1  Y    0.174772   0.000000   0.000000  -0.152008  -0.058917
    9  NA 1  Z    0.000000  -0.553788   1.266785  -0.000000   0.000000
   10  NA 1  S    0.000000  -1.719058  -1.193607  -0.000000   0.000000
   11  NA 1  X   -0.003084   0.000000   0.000000   0.046560  -0.120127
   12  NA 1  Y   -0.017889   0.000000   0.000000  -0.120127  -0.046560
   13  NA 1  Z    0.000000   0.236958  -0.355451  -0.000000   0.000000
   14  NA 1 XX    0.000000  -2.239755  -1.554496  -0.000000   0.000000
   15  NA 1 YY    0.000000  -2.239755  -1.554496  -0.000000   0.000000
   16  NA 1 ZZ    0.000000  -2.763145   0.170887  -0.000000   0.000000
   17  NA 1 XY    0.000000   0.000000   0.000000  -0.000000   0.000000
   18  NA 1 XZ    0.171936   0.000000   0.000000   0.096926  -0.250072
   19  NA 1 YZ    0.997219   0.000000   0.000000  -0.250072  -0.096926
   20  CL 2  S    0.000000   0.010535  -0.035433  -0.000000   0.000000
   21  CL 2  S    0.000000  -0.048855   0.121233  -0.000000   0.000000
   22  CL 2  X    0.011818   0.000000   0.000000  -0.110227   0.284391
   23  CL 2  Y    0.068541   0.000000   0.000000   0.284391   0.110227
   24  CL 2  Z    0.000000   0.003121   0.030218  -0.000000   0.000000
   25  CL 2  S    0.000000   0.108212  -0.506311  -0.000000   0.000000
   26  CL 2  X   -0.035231   0.000000   0.000000   0.432415  -1.115649
   27  CL 2  Y   -0.204338   0.000000   0.000000  -1.115649  -0.432415
   28  CL 2  Z    0.000000   0.009424  -0.179197  -0.000000   0.000000
   29  CL 2  S    0.000000   0.172803  -0.571129  -0.000000   0.000000
   30  CL 2  X   -0.027470   0.000000   0.000000  -0.495673   1.278859
   31  CL 2  Y   -0.159322   0.000000   0.000000   1.278859   0.495673
   32  CL 2  Z    0.000000  -0.645492   1.225862  -0.000000   0.000000
   33  CL 2 XX    0.000000   0.047312  -0.066082  -0.000000   0.000000
   34  CL 2 YY    0.000000   0.047312  -0.066082  -0.000000   0.000000
   35  CL 2 ZZ    0.000000  -0.071080   0.070194  -0.000000   0.000000
   36  CL 2 XY    0.000000   0.000000   0.000000  -0.000000   0.000000
   37  CL 2 XZ   -0.017587   0.000000   0.000000  -0.030939   0.079824
   38  CL 2 YZ   -0.102004   0.000000   0.000000   0.079824   0.030939

                     31         32         33         34         35
                    0.7884     0.8956     1.2786     1.2786     1.3256
                     A          A          A          A          A   
    1  NA 1  S   -0.008318   0.006099   0.000000  -0.000000  -0.000000
    2  NA 1  S    0.014603  -0.219645   0.000000  -0.000000  -0.000000
    3  NA 1  X   -0.000000  -0.000000   0.000000  -0.000000  -0.017966
    4  NA 1  Y   -0.000000  -0.000000   0.000000  -0.000000   0.003150
    5  NA 1  Z    0.044626  -0.068557   0.000000  -0.000000  -0.000000
    6  NA 1  S   -0.645134  -2.433019   0.000000  -0.000000  -0.000000
    7  NA 1  X   -0.000000  -0.000000   0.000000  -0.000000   0.156988
    8  NA 1  Y   -0.000000  -0.000000   0.000000  -0.000000  -0.027524
    9  NA 1  Z   -0.813211  -1.237176   0.000000  -0.000000  -0.000000
   10  NA 1  S   -0.180742   0.563539   0.000000  -0.000000  -0.000000
   11  NA 1  X   -0.000000  -0.000000   0.000000  -0.000000  -0.034854
   12  NA 1  Y   -0.000000  -0.000000   0.000000  -0.000000   0.006111
   13  NA 1  Z   -0.154398   0.137936   0.000000  -0.000000  -0.000000
   14  NA 1 XX    0.452373   0.570528   0.044784  -0.000000  -0.000000
   15  NA 1 YY    0.452373   0.570528  -0.044784   0.000000  -0.000000
   16  NA 1 ZZ   -0.749492   0.026576   0.000000  -0.000000  -0.000000
   17  NA 1 XY   -0.000000  -0.000000  -0.000000  -0.051713  -0.000000
   18  NA 1 XZ   -0.000000  -0.000000   0.000000  -0.000000   0.260266
   19  NA 1 YZ   -0.000000  -0.000000   0.000000  -0.000000  -0.045632
   20  CL 2  S   -0.046530  -0.047531   0.000000  -0.000000  -0.000000
   21  CL 2  S    0.001315  -0.003030   0.000000  -0.000000  -0.000000
   22  CL 2  X   -0.000000  -0.000000   0.000000  -0.000000  -0.025983
   23  CL 2  Y   -0.000000  -0.000000   0.000000  -0.000000   0.004556
   24  CL 2  Z    0.202643  -0.240835   0.000000  -0.000000  -0.000000
   25  CL 2  S   -1.077228  -1.114416   0.000000  -0.000000  -0.000000
   26  CL 2  X   -0.000000  -0.000000   0.000000  -0.000000   0.113356
   27  CL 2  Y   -0.000000  -0.000000   0.000000  -0.000000  -0.019874
   28  CL 2  Z   -0.750867   1.009942   0.000000  -0.000000  -0.000000
   29  CL 2  S    2.348576   2.451053   0.000000  -0.000000  -0.000000
   30  CL 2  X   -0.000000  -0.000000   0.000000  -0.000000  -0.212958
   31  CL 2  Y   -0.000000  -0.000000   0.000000  -0.000000   0.037337
   32  CL 2  Z    0.062640  -1.899357   0.000000  -0.000000  -0.000000
   33  CL 2 XX   -0.050651  -0.010573  -0.865914   0.000004  -0.000000
   34  CL 2 YY   -0.050651  -0.010573   0.865914  -0.000004  -0.000000
   35  CL 2 ZZ   -0.242659  -0.342562   0.000000  -0.000000  -0.000000
   36  CL 2 XY   -0.000000  -0.000000   0.000005   0.999871  -0.000000
   37  CL 2 XZ   -0.000000  -0.000000   0.000000  -0.000000   0.985369
   38  CL 2 YZ   -0.000000  -0.000000   0.000000  -0.000000  -0.172762

                     36         37         38
                    1.3256     1.4764     4.8206
                     A          A          A   
    1  NA 1  S   -0.000000  -0.001865   0.000747
    2  NA 1  S   -0.000000  -0.092822  -0.023973
    3  NA 1  X   -0.003150   0.000000  -0.000000
    4  NA 1  Y   -0.017966   0.000000  -0.000000
    5  NA 1  Z   -0.000000  -0.002536  -0.010953
    6  NA 1  S   -0.000000  -0.524755  -0.269287
    7  NA 1  X    0.027524   0.000000  -0.000000
    8  NA 1  Y    0.156988   0.000000  -0.000000
    9  NA 1  Z   -0.000000  -1.325987  -0.231810
   10  NA 1  S   -0.000000   0.081622   0.015989
   11  NA 1  X   -0.006111   0.000000  -0.000000
   12  NA 1  Y   -0.034854   0.000000  -0.000000
   13  NA 1  Z   -0.000000   0.264417  -0.005969
   14  NA 1 XX   -0.000000   0.136464   0.074708
   15  NA 1 YY   -0.000000   0.136464   0.074708
   16  NA 1 ZZ   -0.000000  -1.028423  -0.083745
   17  NA 1 XY   -0.000000   0.000000  -0.000000
   18  NA 1 XZ    0.045632   0.000000  -0.000000
   19  NA 1 YZ    0.260266   0.000000  -0.000000
   20  CL 2  S   -0.000000  -0.019914   0.168851
   21  CL 2  S   -0.000000  -0.040793  -0.815850
   22  CL 2  X   -0.004556   0.000000  -0.000000
   23  CL 2  Y   -0.025983   0.000000  -0.000000
   24  CL 2  Z   -0.000000  -0.040715  -0.006403
   25  CL 2  S   -0.000000  -0.606938   5.467074
   26  CL 2  X    0.019874   0.000000  -0.000000
   27  CL 2  Y    0.113356   0.000000  -0.000000
   28  CL 2  Z   -0.000000   0.218208   0.039033
   29  CL 2  S   -0.000000   1.819729   0.419218
   30  CL 2  X   -0.037337   0.000000  -0.000000
   31  CL 2  Y   -0.212958   0.000000  -0.000000
   32  CL 2  Z   -0.000000  -1.249811  -0.213112
   33  CL 2 XX   -0.000000  -0.551968  -2.483165
   34  CL 2 YY   -0.000000  -0.551968  -2.483165
   35  CL 2 ZZ   -0.000000   0.963445  -2.437366
   36  CL 2 XY   -0.000000   0.000000  -0.000000
   37  CL 2 XZ    0.172762   0.000000  -0.000000
   38  CL 2 YZ    0.985369   0.000000  -0.000000

 LZ VALUE ANALYSIS FOR THE MOS
 ----------------------------------------
 MO     1 (    1) HAS LZ(WEIGHT)= 0.00(100.0%) 
 MO     2 (    2) HAS LZ(WEIGHT)= 0.00(100.0%) 
 MO     3 (    3) HAS LZ(WEIGHT)= 0.00(100.0%) 
 MO     4 (    4) HAS LZ(WEIGHT)= 0.00(100.0%) 
 MO     5 (    5) HAS LZ(WEIGHT)=-1.00( 50.0%)  1.00( 50.0%) 
 MO     6 (    5) HAS LZ(WEIGHT)=-1.00( 50.0%)  1.00( 50.0%) 
 MO     7 (    6) HAS LZ(WEIGHT)= 0.00(100.0%) 
 MO     8 (    7) HAS LZ(WEIGHT)=-1.00( 50.0%)  1.00( 50.0%) 
 MO     9 (    7) HAS LZ(WEIGHT)=-1.00( 50.0%)  1.00( 50.0%) 
 MO    10 (    8) HAS LZ(WEIGHT)= 0.00(100.0%) 
 MO    11 (    9) HAS LZ(WEIGHT)= 0.00(100.0%) 
 MO    12 (   10) HAS LZ(WEIGHT)= 0.00(100.0%) 
 MO    13 (   11) HAS LZ(WEIGHT)=-1.00( 50.0%)  1.00( 50.0%) 
 MO    14 (   11) HAS LZ(WEIGHT)=-1.00( 50.0%)  1.00( 50.0%) 
 MO    15 (   12) HAS LZ(WEIGHT)= 0.00(100.0%) 
 MO    16 (   13) HAS LZ(WEIGHT)=-1.00( 50.0%)  1.00( 50.0%) 
 MO    17 (   13) HAS LZ(WEIGHT)=-1.00( 50.0%)  1.00( 50.0%) 
 MO    18 (   14) HAS LZ(WEIGHT)= 0.00(100.0%) 
 MO    19 (   15) HAS LZ(WEIGHT)= 0.00(100.0%) 
 MO    20 (   16) HAS LZ(WEIGHT)=-1.00( 50.0%)  1.00( 50.0%) 
 MO    21 (   16) HAS LZ(WEIGHT)=-1.00( 50.0%)  1.00( 50.0%) 
 MO    22 (   17) HAS LZ(WEIGHT)= 0.00(100.0%) 
 MO    23 (   18) HAS LZ(WEIGHT)=-2.00( 50.0%)  2.00( 50.0%) 
 MO    24 (   18) HAS LZ(WEIGHT)=-2.00( 50.0%)  2.00( 50.0%) 
 MO    25 (   19) HAS LZ(WEIGHT)=-1.00( 50.0%)  1.00( 50.0%) 
 MO    26 (   19) HAS LZ(WEIGHT)=-1.00( 50.0%)  1.00( 50.0%) 
 MO    27 (   20) HAS LZ(WEIGHT)= 0.00(100.0%) 
 MO    28 (   21) HAS LZ(WEIGHT)= 0.00(100.0%) 
 MO    29 (   22) HAS LZ(WEIGHT)=-1.00( 50.0%)  1.00( 50.0%) 
 MO    30 (   22) HAS LZ(WEIGHT)=-1.00( 50.0%)  1.00( 50.0%) 
 MO    31 (   23) HAS LZ(WEIGHT)= 0.00(100.0%) 
 MO    32 (   24) HAS LZ(WEIGHT)= 0.00(100.0%) 
 MO    33 (   25) HAS LZ(WEIGHT)=-2.00( 50.0%)  2.00( 50.0%) 
 MO    34 (   25) HAS LZ(WEIGHT)=-2.00( 50.0%)  2.00( 50.0%) 
 MO    35 (   26) HAS LZ(WEIGHT)=-1.00( 50.0%)  1.00( 50.0%) 
 MO    36 (   26) HAS LZ(WEIGHT)=-1.00( 50.0%)  1.00( 50.0%) 
 MO    37 (   27) HAS LZ(WEIGHT)= 0.00(100.0%) 
 MO    38 (   28) HAS LZ(WEIGHT)= 0.00(100.0%) 

  ----- BETA SET ----- 

          ------------
          EIGENVECTORS
          ------------

                      1          2          3          4          5
                 -104.6894   -40.5213   -10.4214    -7.8895    -7.8888
                     A          A          A          A          A   
    1  NA 1  S    0.000002   0.997909  -0.000006   0.000028  -0.000000
    2  NA 1  S   -0.000027   0.008883   0.000271  -0.000634  -0.000000
    3  NA 1  X   -0.000000   0.000000   0.000000   0.000000   0.000000
    4  NA 1  Y   -0.000000   0.000000   0.000000   0.000000   0.000019
    5  NA 1  Z   -0.000008  -0.000065   0.000084  -0.000157  -0.000000
    6  NA 1  S   -0.000058  -0.000926   0.002545  -0.004964  -0.000000
    7  NA 1  X   -0.000000   0.000000   0.000000   0.000000   0.000003
    8  NA 1  Y   -0.000000   0.000000   0.000000   0.000000   0.000349
    9  NA 1  Z   -0.000059   0.000022   0.002162  -0.001722  -0.000000
   10  NA 1  S   -0.000094   0.000400   0.000178   0.001728  -0.000000
   11  NA 1  X   -0.000000   0.000000   0.000000   0.000000   0.000004
   12  NA 1  Y   -0.000000   0.000000   0.000000   0.000000   0.000444
   13  NA 1  Z   -0.000091  -0.000083   0.000366   0.000699  -0.000000
   14  NA 1 XX   -0.000004  -0.000137  -0.000635   0.000790  -0.000000
   15  NA 1 YY   -0.000004  -0.000137  -0.000635   0.000790  -0.000000
   16  NA 1 ZZ    0.000010  -0.000248   0.000630   0.001088  -0.000000
   17  NA 1 XY   -0.000000   0.000000   0.000000   0.000000  -0.000000
   18  NA 1 XZ   -0.000000   0.000000   0.000000   0.000000   0.000003
   19  NA 1 YZ   -0.000000   0.000000   0.000000   0.000000   0.000355
   20  CL 2  S    0.996116   0.000001  -0.286734  -0.000537  -0.000000
   21  CL 2  S    0.014635   0.000009   1.030745   0.001893  -0.000000
   22  CL 2  X   -0.000000   0.000000   0.000000   0.000000   0.008975
   23  CL 2  Y   -0.000000   0.000000   0.000000   0.000000   0.993398
   24  CL 2  Z   -0.000023   0.000054  -0.001535   0.993272  -0.000000
   25  CL 2  S   -0.017748  -0.000042   0.026515  -0.001337  -0.000000
   26  CL 2  X   -0.000000   0.000000   0.000000   0.000000   0.000188
   27  CL 2  Y   -0.000000   0.000000   0.000000   0.000000   0.020793
   28  CL 2  Z    0.000037  -0.000261  -0.000693   0.021485  -0.000000
   29  CL 2  S    0.001637   0.000060  -0.009150   0.001810  -0.000000
   30  CL 2  X   -0.000000   0.000000   0.000000   0.000000  -0.000045
   31  CL 2  Y   -0.000000   0.000000   0.000000   0.000000  -0.005022
   32  CL 2  Z   -0.000081   0.000235   0.002081  -0.006320  -0.000000
   33  CL 2 XX    0.006241   0.000068  -0.001345   0.000164  -0.000000
   34  CL 2 YY    0.006241   0.000068  -0.001345   0.000164  -0.000000
   35  CL 2 ZZ    0.006244   0.000086  -0.001514  -0.000060  -0.000000
   36  CL 2 XY   -0.000000   0.000000   0.000000   0.000000  -0.000000
   37  CL 2 XZ   -0.000000   0.000000   0.000000   0.000000  -0.000001
   38  CL 2 YZ   -0.000000   0.000000   0.000000   0.000000  -0.000088

                      6          7          8          9         10
                   -7.8888    -2.8359    -1.5579    -1.5579    -1.5573
                     A          A          A          A          A   
    1  NA 1  S    0.000000  -0.245788   0.000000   0.000000  -0.003742
    2  NA 1  S    0.000000   1.027850   0.000000   0.000000   0.015392
    3  NA 1  X    0.000019   0.000000  -0.069135   0.995956  -0.000000
    4  NA 1  Y   -0.000000   0.000000   0.995956   0.069135  -0.000000
    5  NA 1  Z    0.000000  -0.015008   0.000000   0.000000   0.997364
    6  NA 1  S    0.000000   0.001715   0.000000   0.000000  -0.007104
    7  NA 1  X    0.000349   0.000000  -0.000614   0.008850  -0.000000
    8  NA 1  Y   -0.000003   0.000000   0.008850   0.000614  -0.000000
    9  NA 1  Z    0.000000  -0.003801   0.000000   0.000000   0.003524
   10  NA 1  S    0.000000   0.000972   0.000000   0.000000   0.001924
   11  NA 1  X    0.000444   0.000000   0.000120  -0.001722  -0.000000
   12  NA 1  Y   -0.000004   0.000000  -0.001722  -0.000120  -0.000000
   13  NA 1  Z    0.000000   0.000950   0.000000   0.000000  -0.000786
   14  NA 1 XX    0.000000  -0.002231   0.000000   0.000000   0.002469
   15  NA 1 YY    0.000000  -0.002231   0.000000   0.000000   0.002469
   16  NA 1 ZZ    0.000000  -0.004804   0.000000   0.000000  -0.008294
   17  NA 1 XY    0.000000   0.000000   0.000000   0.000000  -0.000000
   18  NA 1 XZ    0.000355   0.000000   0.000294  -0.004235  -0.000000
   19  NA 1 YZ   -0.000003   0.000000  -0.004235  -0.000294  -0.000000
   20  CL 2  S    0.000000   0.000110   0.000000   0.000000   0.001620
   21  CL 2  S    0.000000  -0.000601   0.000000   0.000000  -0.007630
   22  CL 2  X    0.993398   0.000000   0.000045  -0.000652  -0.000000
   23  CL 2  Y   -0.008975   0.000000  -0.000652  -0.000045  -0.000000
   24  CL 2  Z    0.000000   0.000591   0.000000   0.000000   0.004629
   25  CL 2  S    0.000000   0.000018   0.000000   0.000000   0.011246
   26  CL 2  X    0.020793   0.000000  -0.000102   0.001472  -0.000000
   27  CL 2  Y   -0.000188   0.000000   0.001472   0.000102  -0.000000
   28  CL 2  Z    0.000000  -0.001553   0.000000   0.000000  -0.011984
   29  CL 2  S    0.000000   0.003304   0.000000   0.000000   0.011384
   30  CL 2  X   -0.005022   0.000000  -0.000092   0.001321  -0.000000
   31  CL 2  Y    0.000045   0.000000   0.001321   0.000092  -0.000000
   32  CL 2  Z    0.000000  -0.002141   0.000000   0.000000  -0.004997
   33  CL 2 XX    0.000000  -0.000040   0.000000   0.000000  -0.000634
   34  CL 2 YY    0.000000  -0.000040   0.000000   0.000000  -0.000634
   35  CL 2 ZZ    0.000000   0.000999   0.000000   0.000000   0.004671
   36  CL 2 XY    0.000000   0.000000   0.000000   0.000000  -0.000000
   37  CL 2 XZ   -0.000088   0.000000   0.000074  -0.001069  -0.000000
   38  CL 2 YZ    0.000001   0.000000  -0.001069  -0.000074  -0.000000

                     11         12         13         14         15
                   -0.9356    -0.3634    -0.3474    -0.3474    -0.0167
                     A          A          A          A          A   
    1  NA 1  S    0.005128  -0.014923   0.000000  -0.000000   0.019957
    2  NA 1  S   -0.028673   0.080314   0.000000  -0.000000  -0.165358
    3  NA 1  X    0.000000   0.000000  -0.006288  -0.027978   0.000000
    4  NA 1  Y    0.000000   0.000000  -0.027978   0.006288   0.000000
    5  NA 1  Z   -0.051616   0.080224   0.000000  -0.000000   0.065743
    6  NA 1  S    0.003011  -0.161998   0.000000  -0.000000  -0.375129
    7  NA 1  X    0.000000   0.000000   0.010735   0.047763   0.000000
    8  NA 1  Y    0.000000   0.000000   0.047763  -0.010735   0.000000
    9  NA 1  Z    0.020063  -0.106791   0.000000  -0.000000  -0.126013
   10  NA 1  S    0.002098   0.028967   0.000000  -0.000000   1.021975
   11  NA 1  X    0.000000   0.000000   0.006191   0.027545   0.000000
   12  NA 1  Y    0.000000   0.000000   0.027545  -0.006191   0.000000
   13  NA 1  Z   -0.004006   0.035295   0.000000  -0.000000  -0.441926
   14  NA 1 XX    0.001136   0.013428   0.000000  -0.000000   0.099874
   15  NA 1 YY    0.001136   0.013428   0.000000  -0.000000   0.099874
   16  NA 1 ZZ    0.020950  -0.050131   0.000000  -0.000000   0.109084
   17  NA 1 XY    0.000000   0.000000   0.000000  -0.000000   0.000000
   18  NA 1 XZ    0.000000   0.000000   0.007191   0.031997   0.000000
   19  NA 1 YZ    0.000000   0.000000   0.031997  -0.007191   0.000000
   20  CL 2  S    0.080571   0.005860   0.000000  -0.000000  -0.003238
   21  CL 2  S   -0.372906  -0.026943   0.000000  -0.000000   0.013323
   22  CL 2  X    0.000000   0.000000  -0.058208  -0.258986   0.000000
   23  CL 2  Y    0.000000   0.000000  -0.258986   0.058208   0.000000
   24  CL 2  Z    0.008670  -0.262516   0.000000  -0.000000  -0.031126
   25  CL 2  S    0.711721   0.062402   0.000000  -0.000000  -0.036247
   26  CL 2  X    0.000000   0.000000   0.147771   0.657484   0.000000
   27  CL 2  Y    0.000000   0.000000   0.657484  -0.147771   0.000000
   28  CL 2  Z   -0.018524   0.666567   0.000000  -0.000000   0.078519
   29  CL 2  S    0.371192   0.084392   0.000000  -0.000000   0.010423
   30  CL 2  X    0.000000   0.000000   0.095657   0.425611   0.000000
   31  CL 2  Y    0.000000   0.000000   0.425611  -0.095657   0.000000
   32  CL 2  Z   -0.011618   0.373873   0.000000  -0.000000   0.077061
   33  CL 2 XX   -0.001842   0.004399   0.000000  -0.000000  -0.001035
   34  CL 2 YY   -0.001842   0.004399   0.000000  -0.000000  -0.001035
   35  CL 2 ZZ    0.005013  -0.017389   0.000000  -0.000000  -0.000651
   36  CL 2 XY    0.000000   0.000000   0.000000  -0.000000   0.000000
   37  CL 2 XZ    0.000000   0.000000  -0.002722  -0.012112   0.000000
   38  CL 2 YZ    0.000000   0.000000  -0.012112   0.002722   0.000000

                     16         17         18         19         20
                    0.0437     0.0437     0.0839     0.1170     0.1946
                     A          A          A          A          A   
    1  NA 1  S    0.000000  -0.000000   0.017796   0.027218   0.000000
    2  NA 1  S    0.000000  -0.000000  -0.094557   0.082033   0.000000
    3  NA 1  X    0.011461  -0.053686   0.000000  -0.000000  -0.211278
    4  NA 1  Y   -0.053686  -0.011461   0.000000  -0.000000  -0.003751
    5  NA 1  Z    0.000000  -0.000000   0.018134   0.099241   0.000000
    6  NA 1  S    0.000000  -0.000000   0.448785   3.564872   0.000000
    7  NA 1  X    0.003885  -0.018199   0.000000  -0.000000   1.379841
    8  NA 1  Y   -0.018199  -0.003885   0.000000  -0.000000   0.024498
    9  NA 1  Z    0.000000  -0.000000  -0.365026  -0.566065   0.000000
   10  NA 1  S    0.000000  -0.000000   0.287867  -2.338568   0.000000
   11  NA 1  X   -0.217147   1.017155   0.000000  -0.000000  -0.879804
   12  NA 1  Y    1.017155   0.217147   0.000000  -0.000000  -0.015620
   13  NA 1  Z    0.000000  -0.000000   1.190317   0.095102   0.000000
   14  NA 1 XX    0.000000  -0.000000  -0.028927  -0.598136   0.000000
   15  NA 1 YY    0.000000  -0.000000  -0.028927  -0.598136   0.000000
   16  NA 1 ZZ    0.000000  -0.000000  -0.124025  -0.585862   0.000000
   17  NA 1 XY    0.000000  -0.000000   0.000000  -0.000000   0.000000
   18  NA 1 XZ    0.007189  -0.033676   0.000000  -0.000000  -0.103785
   19  NA 1 YZ   -0.033676  -0.007189   0.000000  -0.000000  -0.001843
   20  CL 2  S    0.000000  -0.000000  -0.011795   0.002338   0.000000
   21  CL 2  S    0.000000  -0.000000   0.067660  -0.021186   0.000000
   22  CL 2  X   -0.007601   0.035603   0.000000  -0.000000   0.021183
   23  CL 2  Y    0.035603   0.007601   0.000000  -0.000000   0.000376
   24  CL 2  Z    0.000000  -0.000000  -0.023398  -0.024114   0.000000
   25  CL 2  S    0.000000  -0.000000  -0.091911  -0.002563   0.000000
   26  CL 2  X    0.017277  -0.080929   0.000000  -0.000000  -0.053307
   27  CL 2  Y   -0.080929  -0.017277   0.000000  -0.000000  -0.000946
   28  CL 2  Z    0.000000  -0.000000   0.069419   0.058138   0.000000
   29  CL 2  S    0.000000  -0.000000  -0.421220   0.222122   0.000000
   30  CL 2  X    0.037280  -0.174625   0.000000  -0.000000  -0.097515
   31  CL 2  Y   -0.174625  -0.037280   0.000000  -0.000000  -0.001731
   32  CL 2  Z    0.000000  -0.000000  -0.061028   0.026333   0.000000
   33  CL 2 XX    0.000000  -0.000000   0.015865  -0.012597   0.000000
   34  CL 2 YY    0.000000  -0.000000   0.015865  -0.012597   0.000000
   35  CL 2 ZZ    0.000000  -0.000000   0.012127   0.006021   0.000000
   36  CL 2 XY    0.000000  -0.000000   0.000000  -0.000000   0.000000
   37  CL 2 XZ    0.000859  -0.004026   0.000000  -0.000000  -0.024565
   38  CL 2 YZ   -0.004026  -0.000859   0.000000  -0.000000  -0.000436

                     21         22         23         24         25
                    0.1946     0.2663     0.4453     0.4453     0.4717
                     A          A          A          A          A   
    1  NA 1  S    0.000000   0.016651  -0.000000   0.000000  -0.000000
    2  NA 1  S    0.000000   0.059341  -0.000000   0.000000  -0.000000
    3  NA 1  X    0.003751   0.000000  -0.000000   0.000000  -0.023642
    4  NA 1  Y   -0.211278   0.000000  -0.000000   0.000000   0.004076
    5  NA 1  Z    0.000000  -0.155410  -0.000000   0.000000  -0.000000
    6  NA 1  S    0.000000   2.413309  -0.000000   0.000000  -0.000000
    7  NA 1  X   -0.024498   0.000000  -0.000000   0.000000   0.174772
    8  NA 1  Y    1.379841   0.000000  -0.000000   0.000000  -0.030133
    9  NA 1  Z    0.000000   1.579533  -0.000000   0.000000  -0.000000
   10  NA 1  S    0.000000  -1.007593  -0.000000   0.000000  -0.000000
   11  NA 1  X    0.015620   0.000000  -0.000000   0.000000  -0.017889
   12  NA 1  Y   -0.879804   0.000000  -0.000000   0.000000   0.003084
   13  NA 1  Z    0.000000  -0.754899  -0.000000   0.000000  -0.000000
   14  NA 1 XX    0.000000  -0.298283   0.000003  -0.865103  -0.000000
   15  NA 1 YY    0.000000  -0.298283  -0.000003   0.865103  -0.000000
   16  NA 1 ZZ    0.000000  -0.588662  -0.000000   0.000000  -0.000000
   17  NA 1 XY    0.000000   0.000000   0.998935   0.000003  -0.000000
   18  NA 1 XZ    0.001843   0.000000  -0.000000   0.000000   0.997219
   19  NA 1 YZ   -0.103785   0.000000  -0.000000   0.000000  -0.171936
   20  CL 2  S    0.000000  -0.008558  -0.000000   0.000000  -0.000000
   21  CL 2  S    0.000000   0.053905  -0.000000   0.000000  -0.000000
   22  CL 2  X   -0.000376   0.000000  -0.000000   0.000000   0.068541
   23  CL 2  Y    0.021183   0.000000  -0.000000   0.000000  -0.011818
   24  CL 2  Z    0.000000  -0.069645  -0.000000   0.000000  -0.000000
   25  CL 2  S    0.000000  -0.058285  -0.000000   0.000000  -0.000000
   26  CL 2  X    0.000946   0.000000  -0.000000   0.000000  -0.204338
   27  CL 2  Y   -0.053307   0.000000  -0.000000   0.000000   0.035231
   28  CL 2  Z    0.000000   0.156845  -0.000000   0.000000  -0.000000
   29  CL 2  S    0.000000  -0.557359  -0.000000   0.000000  -0.000000
   30  CL 2  X    0.001731   0.000000  -0.000000   0.000000  -0.159322
   31  CL 2  Y   -0.097515   0.000000  -0.000000   0.000000   0.027470
   32  CL 2  Z    0.000000   0.605216  -0.000000   0.000000  -0.000000
   33  CL 2 XX    0.000000   0.003467   0.000000  -0.024560  -0.000000
   34  CL 2 YY    0.000000   0.003467  -0.000000   0.024560  -0.000000
   35  CL 2 ZZ    0.000000   0.034726  -0.000000   0.000000  -0.000000
   36  CL 2 XY    0.000000   0.000000   0.028360   0.000000  -0.000000
   37  CL 2 XZ    0.000436   0.000000  -0.000000   0.000000  -0.102004
   38  CL 2 YZ   -0.024565   0.000000  -0.000000   0.000000   0.017587

                     26         27         28         29         30
                    0.4717     0.5338     0.6029     0.7739     0.7739
                     A          A          A          A          A   
    1  NA 1  S    0.000000   0.001923   0.006877  -0.000000   0.000000
    2  NA 1  S    0.000000   0.126491   0.157687  -0.000000   0.000000
    3  NA 1  X   -0.004076   0.000000   0.000000  -0.000107   0.000277
    4  NA 1  Y   -0.023642   0.000000   0.000000   0.000277   0.000107
    5  NA 1  Z    0.000000   0.007685  -0.047935  -0.000000   0.000000
    6  NA 1  S    0.000000   6.263812   3.908096  -0.000000   0.000000
    7  NA 1  X    0.030133   0.000000   0.000000   0.058917  -0.152008
    8  NA 1  Y    0.174772   0.000000   0.000000  -0.152008  -0.058917
    9  NA 1  Z    0.000000  -0.553788   1.266785  -0.000000   0.000000
   10  NA 1  S    0.000000  -1.719058  -1.193607  -0.000000   0.000000
   11  NA 1  X   -0.003084   0.000000   0.000000   0.046560  -0.120127
   12  NA 1  Y   -0.017889   0.000000   0.000000  -0.120127  -0.046560
   13  NA 1  Z    0.000000   0.236958  -0.355451  -0.000000   0.000000
   14  NA 1 XX    0.000000  -2.239755  -1.554496  -0.000000   0.000000
   15  NA 1 YY    0.000000  -2.239755  -1.554496  -0.000000   0.000000
   16  NA 1 ZZ    0.000000  -2.763145   0.170887  -0.000000   0.000000
   17  NA 1 XY    0.000000   0.000000   0.000000  -0.000000   0.000000
   18  NA 1 XZ    0.171936   0.000000   0.000000   0.096926  -0.250072
   19  NA 1 YZ    0.997219   0.000000   0.000000  -0.250072  -0.096926
   20  CL 2  S    0.000000   0.010535  -0.035433  -0.000000   0.000000
   21  CL 2  S    0.000000  -0.048855   0.121233  -0.000000   0.000000
   22  CL 2  X    0.011818   0.000000   0.000000  -0.110227   0.284391
   23  CL 2  Y    0.068541   0.000000   0.000000   0.284391   0.110227
   24  CL 2  Z    0.000000   0.003121   0.030218  -0.000000   0.000000
   25  CL 2  S    0.000000   0.108212  -0.506311  -0.000000   0.000000
   26  CL 2  X   -0.035231   0.000000   0.000000   0.432415  -1.115649
   27  CL 2  Y   -0.204338   0.000000   0.000000  -1.115649  -0.432415
   28  CL 2  Z    0.000000   0.009424  -0.179197  -0.000000   0.000000
   29  CL 2  S    0.000000   0.172803  -0.571129  -0.000000   0.000000
   30  CL 2  X   -0.027470   0.000000   0.000000  -0.495673   1.278859
   31  CL 2  Y   -0.159322   0.000000   0.000000   1.278859   0.495673
   32  CL 2  Z    0.000000  -0.645492   1.225862  -0.000000   0.000000
   33  CL 2 XX    0.000000   0.047312  -0.066082  -0.000000   0.000000
   34  CL 2 YY    0.000000   0.047312  -0.066082  -0.000000   0.000000
   35  CL 2 ZZ    0.000000  -0.071080   0.070194  -0.000000   0.000000
   36  CL 2 XY    0.000000   0.000000   0.000000  -0.000000   0.000000
   37  CL 2 XZ   -0.017587   0.000000   0.000000  -0.030939   0.079824
   38  CL 2 YZ   -0.102004   0.000000   0.000000   0.079824   0.030939

                     31         32         33         34         35
                    0.7884     0.8956     1.2786     1.2786     1.3256
                     A          A          A          A          A   
    1  NA 1  S   -0.008318   0.006099   0.000000  -0.000000  -0.000000
    2  NA 1  S    0.014603  -0.219645   0.000000  -0.000000  -0.000000
    3  NA 1  X   -0.000000  -0.000000   0.000000  -0.000000  -0.017966
    4  NA 1  Y   -0.000000  -0.000000   0.000000  -0.000000   0.003150
    5  NA 1  Z    0.044626  -0.068557   0.000000  -0.000000  -0.000000
    6  NA 1  S   -0.645134  -2.433019   0.000000  -0.000000  -0.000000
    7  NA 1  X   -0.000000  -0.000000   0.000000  -0.000000   0.156988
    8  NA 1  Y   -0.000000  -0.000000   0.000000  -0.000000  -0.027524
    9  NA 1  Z   -0.813211  -1.237176   0.000000  -0.000000  -0.000000
   10  NA 1  S   -0.180742   0.563539   0.000000  -0.000000  -0.000000
   11  NA 1  X   -0.000000  -0.000000   0.000000  -0.000000  -0.034854
   12  NA 1  Y   -0.000000  -0.000000   0.000000  -0.000000   0.006111
   13  NA 1  Z   -0.154398   0.137936   0.000000  -0.000000  -0.000000
   14  NA 1 XX    0.452373   0.570528   0.044784  -0.000000  -0.000000
   15  NA 1 YY    0.452373   0.570528  -0.044784   0.000000  -0.000000
   16  NA 1 ZZ   -0.749492   0.026576   0.000000  -0.000000  -0.000000
   17  NA 1 XY   -0.000000  -0.000000  -0.000000  -0.051713  -0.000000
   18  NA 1 XZ   -0.000000  -0.000000   0.000000  -0.000000   0.260266
   19  NA 1 YZ   -0.000000  -0.000000   0.000000  -0.000000  -0.045632
   20  CL 2  S   -0.046530  -0.047531   0.000000  -0.000000  -0.000000
   21  CL 2  S    0.001315  -0.003030   0.000000  -0.000000  -0.000000
   22  CL 2  X   -0.000000  -0.000000   0.000000  -0.000000  -0.025983
   23  CL 2  Y   -0.000000  -0.000000   0.000000  -0.000000   0.004556
   24  CL 2  Z    0.202643  -0.240835   0.000000  -0.000000  -0.000000
   25  CL 2  S   -1.077228  -1.114416   0.000000  -0.000000  -0.000000
   26  CL 2  X   -0.000000  -0.000000   0.000000  -0.000000   0.113356
   27  CL 2  Y   -0.000000  -0.000000   0.000000  -0.000000  -0.019874
   28  CL 2  Z   -0.750867   1.009942   0.000000  -0.000000  -0.000000
   29  CL 2  S    2.348576   2.451053   0.000000  -0.000000  -0.000000
   30  CL 2  X   -0.000000  -0.000000   0.000000  -0.000000  -0.212958
   31  CL 2  Y   -0.000000  -0.000000   0.000000  -0.000000   0.037337
   32  CL 2  Z    0.062640  -1.899357   0.000000  -0.000000  -0.000000
   33  CL 2 XX   -0.050651  -0.010573  -0.865914   0.000004  -0.000000
   34  CL 2 YY   -0.050651  -0.010573   0.865914  -0.000004  -0.000000
   35  CL 2 ZZ   -0.242659  -0.342562   0.000000  -0.000000  -0.000000
   36  CL 2 XY   -0.000000  -0.000000   0.000005   0.999871  -0.000000
   37  CL 2 XZ   -0.000000  -0.000000   0.000000  -0.000000   0.985369
   38  CL 2 YZ   -0.000000  -0.000000   0.000000  -0.000000  -0.172762

                     36         37         38
                    1.3256     1.4764     4.8206
                     A          A          A   
    1  NA 1  S   -0.000000  -0.001865   0.000747
    2  NA 1  S   -0.000000  -0.092822  -0.023973
    3  NA 1  X   -0.003150   0.000000  -0.000000
    4  NA 1  Y   -0.017966   0.000000  -0.000000
    5  NA 1  Z   -0.000000  -0.002536  -0.010953
    6  NA 1  S   -0.000000  -0.524755  -0.269287
    7  NA 1  X    0.027524   0.000000  -0.000000
    8  NA 1  Y    0.156988   0.000000  -0.000000
    9  NA 1  Z   -0.000000  -1.325987  -0.231810
   10  NA 1  S   -0.000000   0.081622   0.015989
   11  NA 1  X   -0.006111   0.000000  -0.000000
   12  NA 1  Y   -0.034854   0.000000  -0.000000
   13  NA 1  Z   -0.000000   0.264417  -0.005969
   14  NA 1 XX   -0.000000   0.136464   0.074708
   15  NA 1 YY   -0.000000   0.136464   0.074708
   16  NA 1 ZZ   -0.000000  -1.028423  -0.083745
   17  NA 1 XY   -0.000000   0.000000  -0.000000
   18  NA 1 XZ    0.045632   0.000000  -0.000000
   19  NA 1 YZ    0.260266   0.000000  -0.000000
   20  CL 2  S   -0.000000  -0.019914   0.168851
   21  CL 2  S   -0.000000  -0.040793  -0.815850
   22  CL 2  X   -0.004556   0.000000  -0.000000
   23  CL 2  Y   -0.025983   0.000000  -0.000000
   24  CL 2  Z   -0.000000  -0.040715  -0.006403
   25  CL 2  S   -0.000000  -0.606938   5.467074
   26  CL 2  X    0.019874   0.000000  -0.000000
   27  CL 2  Y    0.113356   0.000000  -0.000000
   28  CL 2  Z   -0.000000   0.218208   0.039033
   29  CL 2  S   -0.000000   1.819729   0.419218
   30  CL 2  X   -0.037337   0.000000  -0.000000
   31  CL 2  Y   -0.212958   0.000000  -0.000000
   32  CL 2  Z   -0.000000  -1.249811  -0.213112
   33  CL 2 XX   -0.000000  -0.551968  -2.483165
   34  CL 2 YY   -0.000000  -0.551968  -2.483165
   35  CL 2 ZZ   -0.000000   0.963445  -2.437366
   36  CL 2 XY   -0.000000   0.000000  -0.000000
   37  CL 2 XZ    0.172762   0.000000  -0.000000
   38  CL 2 YZ    0.985369   0.000000  -0.000000
 ...... END OF UHF CALCULATION ......
 STEP CPU TIME =     0.01 TOTAL CPU TIME =          0.0 (      0.0 MIN)
 TOTAL WALL CLOCK TIME=          0.0 SECONDS, CPU UTILIZATION IS    98.11%

     ----------------------------------------------------------------
     PROPERTY VALUES FOR THE UHF   SELF-CONSISTENT FIELD WAVEFUNCTION
     ----------------------------------------------------------------

          -----------------
          ENERGY COMPONENTS
          -----------------

         WAVEFUNCTION NORMALIZATION =       1.0000000000

                ONE ELECTRON ENERGY =    -947.8971978069
                TWO ELECTRON ENERGY =     285.1466380410
           NUCLEAR REPULSION ENERGY =      41.3509434850
                                      ------------------
                       TOTAL ENERGY =    -621.3996162808

 ELECTRON-ELECTRON POTENTIAL ENERGY =     285.1466380410
  NUCLEUS-ELECTRON POTENTIAL ENERGY =   -1568.9180813686
   NUCLEUS-NUCLEUS POTENTIAL ENERGY =      41.3509434850
                                      ------------------
             TOTAL POTENTIAL ENERGY =   -1242.4204998425
               TOTAL KINETIC ENERGY =     621.0208835617
                 VIRIAL RATIO (V/T) =       2.0006098550

  ...... PI ENERGY ANALYSIS ......

 ENERGY ANALYSIS:
            FOCK ENERGY=   -377.6039223988
          BARE H ENERGY=   -947.8971978069
     ELECTRONIC ENERGY =   -662.7505601028
         KINETIC ENERGY=    621.0208835617
          N-N REPULSION=     41.3509434850
           TOTAL ENERGY=   -621.3996166178
        SIGMA PART(1+2)=   -513.7003238933
               (K,V1,2)=    506.8445166145  -1195.8177006845    175.2728601767
           PI PART(1+2)=   -149.0502362095
               (K,V1,2)=    114.1763669472   -373.1003806841    109.8737775273
  SIGMA SKELETON, ERROR=   -472.3493804082      0.0000000000
             MIXED PART= 0.00000E+00 0.00000E+00 0.00000E+00 0.00000E+00
 ...... END OF PI ENERGY ANALYSIS ......

          ---------------------------------------
          MULLIKEN AND LOWDIN POPULATION ANALYSES
          ---------------------------------------

     ATOMIC MULLIKEN POPULATION IN EACH MOLECULAR ORBITAL
        ALPHA ORBITALS

                      1          2          3          4          5

                  1.000000   1.000000   1.000000   1.000000   1.000000

    1            -0.000002   1.000003   0.000397   0.000042   0.000010
    2             1.000002  -0.000003   0.999603   0.999958   0.999990

                      6          7          8          9         10

                  1.000000   1.000000   1.000000   1.000000   1.000000

    1             0.000010   0.999532   0.999946   0.999946   0.997755
    2             0.999990   0.000468   0.000054   0.000054   0.002245

                     11         12         13         14

                  1.000000   1.000000   1.000000   1.000000

    1             0.018398   0.092998   0.028599   0.028599
    2             0.981602   0.907002   0.971401   0.971401

     ATOMIC MULLIKEN POPULATION IN EACH MOLECULAR ORBITAL
         BETA ORBITALS

                      1          2          3          4          5

                  1.000000   1.000000   1.000000   1.000000   1.000000

    1            -0.000002   1.000003   0.000397   0.000042   0.000010
    2             1.000002  -0.000003   0.999603   0.999958   0.999990

                      6          7          8          9         10

                  1.000000   1.000000   1.000000   1.000000   1.000000

    1             0.000010   0.999532   0.999946   0.999946   0.997755
    2             0.999990   0.000468   0.000054   0.000054   0.002245

                     11         12         13         14

                  1.000000   1.000000   1.000000   1.000000

    1             0.018398   0.092998   0.028599   0.028599
    2             0.981602   0.907002   0.971401   0.971401

     ATOMIC SPIN POPULATION (ALPHA MINUS BETA)
       ATOM         MULL.POP.                    LOW.POP.
    1 NA            0.000000                     0.000000
    2 CL            0.000000                     0.000000


          ********* ALL ELECTRONS ********

               ----- POPULATIONS IN EACH AO -----
                             MULLIKEN      LOWDIN
              1  NA 1  S      1.99992     1.99949
              2  NA 1  S      2.00060     1.97132
              3  NA 1  X      1.99681     1.97925
              4  NA 1  Y      1.99681     1.97925
              5  NA 1  Z      1.99803     1.97994
              6  NA 1  S      0.10567     0.06562
              7  NA 1  X      0.02930     0.05550
              8  NA 1  Y      0.02930     0.05550
              9  NA 1  Z      0.07405     0.14416
             10  NA 1  S     -0.00887     0.03715
             11  NA 1  X      0.01295     0.02312
             12  NA 1  Y      0.01295     0.02312
             13  NA 1  Z     -0.00058     0.03492
             14  NA 1 XX     -0.00541     0.01268
             15  NA 1 YY     -0.00541     0.01268
             16  NA 1 ZZ      0.06025     0.16367
             17  NA 1 XY      0.00000     0.00000
             18  NA 1 XZ      0.01806     0.03776
             19  NA 1 YZ      0.01806     0.03776
             20  CL 2  S      1.99889     1.99841
             21  CL 2  S      1.99856     1.98217
             22  CL 2  X      1.99409     1.97276
             23  CL 2  Y      1.99409     1.97276
             24  CL 2  Z      1.99370     1.97122
             25  CL 2  S      1.31771     0.62339
             26  CL 2  X      1.18869     1.12754
             27  CL 2  Y      1.18869     1.12754
             28  CL 2  Z      1.16856     1.07587
             29  CL 2  S      0.65710     0.46956
             30  CL 2  X      0.75964     0.80378
             31  CL 2  Y      0.75964     0.80378
             32  CL 2  Z      0.64625     0.71273
             33  CL 2 XX     -0.00259     0.24887
             34  CL 2 YY     -0.00259     0.24887
             35  CL 2 ZZ      0.00615     0.24728
             36  CL 2 XY      0.00000     0.00000
             37  CL 2 XZ      0.00047     0.00030
             38  CL 2 YZ      0.00047     0.00030

          ----- MULLIKEN ATOMIC OVERLAP POPULATIONS -----
          (OFF-DIAGONAL ELEMENTS NEED TO BE MULTIPLIED BY 2)

             1           2

    1   10.1015180
    2    0.2309518  17.4365785

          TOTAL MULLIKEN AND LOWDIN ATOMIC POPULATIONS
       ATOM         MULL.POP.    CHARGE          LOW.POP.     CHARGE
    1 NA           10.332470    0.667530        10.612877    0.387123
    2 CL           17.667530   -0.667530        17.387123   -0.387123

          -------------------------------
          BOND ORDER AND VALENCE ANALYSIS     BOND ORDER THRESHOLD=0.050
          -------------------------------

                   BOND                       BOND                       BOND
  ATOM PAIR DIST  ORDER      ATOM PAIR DIST  ORDER      ATOM PAIR DIST  ORDER
    1   2  2.393  0.614

                       TOTAL       BONDED        FREE
      ATOM            VALENCE     VALENCE     VALENCE
    1 NA                0.614       0.614      -0.000
    2 CL                0.614       0.614      -0.000

          -----------------------------------------
          ATOMIC SPIN DENSITY AT THE NUCLEUS (A.U.)
          -----------------------------------------
                            SPIN DENS    ALPHA DENS     BETA DENS
    1  NA          11.0     0.0000000     390.78395     390.78395
    2  CL          17.0     0.0000000    1511.20810    1511.20810

          ---------------------
          ELECTROSTATIC MOMENTS
          ---------------------

 POINT   1           X           Y           Z (BOHR)    CHARGE
                 0.000000    0.000000   -0.010648       -0.00 (A.U.)
         DX          DY          DZ         /D/  (DEBYE)
     0.000000    0.000000   -9.513031    9.513031
 ...... END OF PROPERTY EVALUATION ......
 STEP CPU TIME =     0.00 TOTAL CPU TIME =          0.0 (      0.0 MIN)
 TOTAL WALL CLOCK TIME=          0.0 SECONDS, CPU UTILIZATION IS    98.21%

 BEGINNING ONE ELECTRON GRADIENT...
 ..... END OF 1-ELECTRON GRADIENT ......
 STEP CPU TIME =     0.00 TOTAL CPU TIME =          0.0 (      0.0 MIN)
 TOTAL WALL CLOCK TIME=          0.0 SECONDS, CPU UTILIZATION IS    98.24%

          ----------------------
          GRADIENT OF THE ENERGY
          ----------------------

 THE MINIMUM MEMORY REQUIRED FOR THIS RUN IS      79013 WORDS.
 USING     993563 WORDS FOR 2E- DERIVATIVE INTEGRAL CONTRIBUTIONS.
 THE COARSE/FINE SCHWARZ SCREENINGS SKIPPED            0/           0 BLOCKS.
 THE NUMBER OF GRADIENT INTEGRAL BLOCKS COMPUTED WAS      1270
 ...... END OF 2-ELECTRON GRADIENT ......
 STEP CPU TIME =     0.05 TOTAL CPU TIME =          0.1 (      0.0 MIN)
 TOTAL WALL CLOCK TIME=          0.1 SECONDS, CPU UTILIZATION IS    99.32%

          NSERCH=  0     ENERGY=    -621.3996163

                                 -----------------------
                                 GRADIENT (HARTREE/BOHR)
                                 -----------------------
        ATOM     ZNUC       DE/DX         DE/DY         DE/DZ
 --------------------------------------------------------------
    1  NA          11.0     0.0000000     0.0000000     0.0005082
    2  CL          17.0     0.0000000     0.0000000    -0.0005082

          MAXIMUM GRADIENT = 0.0005082    RMS GRADIENT = 0.0002934

 NSERCH:   0  E=     -621.3996162808  GRAD. MAX=  0.0005082  R.M.S.=  0.0002934

          FORCE CONSTANT MATRIX NOT UPDATED --- TAKING FIRST STEP
          MIN SEARCH, CORRECT HESSIAN, TRYING PURE NR STEP
               NR STEP HAS LENGTH         =   0.000606
          RADIUS OF STEP TAKEN=   0.00061  CURRENT TRUST RADIUS=   0.30000

 BEGINNING GEOMETRY SEARCH POINT NSERCH=   1 ...

 COORDINATES OF ALL ATOMS ARE (ANGS)
   ATOM   CHARGE       X              Y              Z
 ------------------------------------------------------------
 NA         11.0   0.0000000000   0.0000000000  -1.4497059781
 CL         17.0   0.0000000000   0.0000000000   0.9438279781

          INTERNUCLEAR DISTANCES (ANGS.)
          ------------------------------

                1 NA         2 CL    

   1 NA      0.0000000    2.3935340 *
   2 CL      2.3935340 *  0.0000000  

  * ... LESS THAN  3.000

 ...... END OF ONE-ELECTRON INTEGRALS ......
 STEP CPU TIME =     0.00 TOTAL CPU TIME =          0.1 (      0.0 MIN)
 TOTAL WALL CLOCK TIME=          0.1 SECONDS, CPU UTILIZATION IS    99.32%
[...]
    2  NA 1  S    0.000000   1.027852   0.000000   0.000000   0.015406
    3  NA 1  X   -0.000014   0.000000  -0.476907   0.877083   0.000000
    4  NA 1  Y   -0.000013   0.000000   0.877083   0.476907   0.000000
    5  NA 1  Z    0.000000  -0.015008   0.000000   0.000000   0.997391
    6  NA 1  S    0.000000   0.001698   0.000000   0.000000  -0.007176
    7  NA 1  X   -0.000261   0.000000  -0.004231   0.007782   0.000000
    8  NA 1  Y   -0.000229   0.000000   0.007782   0.004231   0.000000
    9  NA 1  Z    0.000000  -0.003803   0.000000   0.000000   0.003470
   10  NA 1  S    0.000000   0.000977   0.000000   0.000000   0.001943
   11  NA 1  X   -0.000333   0.000000   0.000822  -0.001512   0.000000
   12  NA 1  Y   -0.000293   0.000000  -0.001512  -0.000822   0.000000
   13  NA 1  Z    0.000000   0.000951   0.000000   0.000000  -0.000773
   14  NA 1 XX    0.000000  -0.002225   0.000000   0.000000   0.002494
   15  NA 1 YY    0.000000  -0.002225   0.000000   0.000000   0.002494
   16  NA 1 ZZ    0.000000  -0.004803   0.000000   0.000000  -0.008302
   17  NA 1 XY    0.000000   0.000000   0.000000   0.000000   0.000000
   18  NA 1 XZ   -0.000267   0.000000   0.002028  -0.003729   0.000000
   19  NA 1 YZ   -0.000235   0.000000  -0.003729  -0.002028   0.000000
   20  CL 2  S    0.000000   0.000108   0.000000   0.000000   0.001600
   21  CL 2  S    0.000000  -0.000596   0.000000   0.000000  -0.007550
   22  CL 2  X   -0.745791   0.000000   0.000308  -0.000566   0.000000
   23  CL 2  Y   -0.656291   0.000000  -0.000566  -0.000308   0.000000
   24  CL 2  Z    0.000000   0.000585   0.000000   0.000000   0.004582
   25  CL 2  S    0.000000   0.000001   0.000000   0.000000   0.011068
   26  CL 2  X   -0.015608   0.000000  -0.000695   0.001277   0.000000
   27  CL 2  Y   -0.013735   0.000000   0.001277   0.000695   0.000000
   28  CL 2  Z    0.000000  -0.001536   0.000000   0.000000  -0.011864
   29  CL 2  S    0.000000   0.003307   0.000000   0.000000   0.011391
   30  CL 2  X    0.003769   0.000000  -0.000630   0.001159   0.000000
   31  CL 2  Y    0.003317   0.000000   0.001159   0.000630   0.000000
   32  CL 2  Z    0.000000  -0.002152   0.000000   0.000000  -0.005039
   33  CL 2 XX    0.000000  -0.000044   0.000000   0.000000  -0.000638
   34  CL 2 YY    0.000000  -0.000044   0.000000   0.000000  -0.000638
   35  CL 2 ZZ    0.000000   0.000997   0.000000   0.000000   0.004646
   36  CL 2 XY    0.000000   0.000000   0.000000   0.000000   0.000000
   37  CL 2 XZ    0.000066   0.000000   0.000507  -0.000932   0.000000
   38  CL 2 YZ    0.000058   0.000000  -0.000932  -0.000507   0.000000

                     11         12         13         14         15
                   -0.9353    -0.3631    -0.3472    -0.3472    -0.0168
                     A          A          A          A          A   
    1  NA 1  S    0.005087  -0.014868   0.000000   0.000000  -0.019987
    2  NA 1  S   -0.028438   0.079944   0.000000   0.000000   0.165469
    3  NA 1  X    0.000000   0.000000   0.012295  -0.025709   0.000000
    4  NA 1  Y    0.000000   0.000000   0.025709   0.012295   0.000000
    5  NA 1  Z   -0.051170   0.079862   0.000000   0.000000  -0.065676
    6  NA 1  S    0.002981  -0.161951   0.000000   0.000000   0.373842
    7  NA 1  X    0.000000   0.000000  -0.021051   0.044016   0.000000
    8  NA 1  Y    0.000000   0.000000  -0.044016  -0.021051   0.000000
    9  NA 1  Z    0.020015  -0.106841   0.000000   0.000000   0.126374
   10  NA 1  S    0.002113   0.028815   0.000000   0.000000  -1.021173
   11  NA 1  X    0.000000   0.000000  -0.012209   0.025529   0.000000
   12  NA 1  Y    0.000000   0.000000  -0.025529  -0.012209   0.000000
   13  NA 1  Z   -0.003990   0.035227   0.000000   0.000000   0.441552
   14  NA 1 XX    0.001147   0.013412   0.000000   0.000000  -0.099718
   15  NA 1 YY    0.001147   0.013412   0.000000   0.000000  -0.099718
   16  NA 1 ZZ    0.020880  -0.050048   0.000000   0.000000  -0.108799
   17  NA 1 XY    0.000000   0.000000   0.000000   0.000000   0.000000
   18  NA 1 XZ    0.000000   0.000000  -0.014101   0.029485   0.000000
   19  NA 1 YZ    0.000000   0.000000  -0.029485  -0.014101   0.000000
   20  CL 2  S    0.080572   0.005855   0.000000   0.000000   0.003232
   21  CL 2  S   -0.372910  -0.026917   0.000000   0.000000  -0.013282
   22  CL 2  X    0.000000   0.000000   0.114527  -0.239471   0.000000
   23  CL 2  Y    0.000000   0.000000   0.239471   0.114527   0.000000
   24  CL 2  Z    0.008624  -0.262454   0.000000   0.000000   0.031138
   25  CL 2  S    0.711757   0.062354   0.000000   0.000000   0.036203
   26  CL 2  X    0.000000   0.000000  -0.290745   0.607935   0.000000
   27  CL 2  Y    0.000000   0.000000  -0.607935  -0.290745   0.000000
   28  CL 2  Z   -0.018415   0.666412   0.000000   0.000000  -0.078551
   29  CL 2  S    0.371289   0.084030   0.000000   0.000000  -0.010675
   30  CL 2  X    0.000000   0.000000  -0.188280   0.393685   0.000000
   31  CL 2  Y    0.000000   0.000000  -0.393685  -0.188280   0.000000
   32  CL 2  Z   -0.011593   0.373958   0.000000   0.000000  -0.076794
   33  CL 2 XX   -0.001839   0.004395   0.000000   0.000000   0.001048
   34  CL 2 YY   -0.001839   0.004395   0.000000   0.000000   0.001048
   35  CL 2 ZZ    0.004975  -0.017377   0.000000   0.000000   0.000652
   36  CL 2 XY    0.000000   0.000000   0.000000   0.000000   0.000000
   37  CL 2 XZ    0.000000   0.000000   0.005334  -0.011153   0.000000
   38  CL 2 YZ    0.000000   0.000000   0.011153   0.005334   0.000000

                     16         17         18         19         20
                    0.0436     0.0436     0.0838     0.1169     0.1945
                     A          A          A          A          A   
    1  NA 1  S    0.000000   0.000000   0.017842   0.027198   0.000000
    2  NA 1  S    0.000000   0.000000  -0.094379   0.082274   0.000000
    3  NA 1  X   -0.028523   0.047030   0.000000   0.000000   0.016430
    4  NA 1  Y   -0.047030  -0.028523   0.000000   0.000000   0.210653
    5  NA 1  Z    0.000000   0.000000   0.018088   0.099085   0.000000
    6  NA 1  S    0.000000   0.000000   0.454384   3.565122   0.000000
    7  NA 1  X   -0.009439   0.015563   0.000000   0.000000  -0.107302
    8  NA 1  Y   -0.015563  -0.009439   0.000000   0.000000  -1.375717
    9  NA 1  Z    0.000000   0.000000  -0.364396  -0.564055   0.000000
   10  NA 1  S    0.000000   0.000000   0.284070  -2.339736   0.000000
   11  NA 1  X    0.539171  -0.889019   0.000000   0.000000   0.068463
   12  NA 1  Y    0.889019   0.539171   0.000000   0.000000   0.877767
   13  NA 1  Z    0.000000   0.000000   1.190145   0.093100   0.000000
   14  NA 1 XX    0.000000   0.000000  -0.029734  -0.598146   0.000000
   15  NA 1 YY    0.000000   0.000000  -0.029734  -0.598146   0.000000
   16  NA 1 ZZ    0.000000   0.000000  -0.124442  -0.585049   0.000000
   17  NA 1 XY    0.000000   0.000000   0.000000   0.000000   0.000000
   18  NA 1 XZ   -0.017893   0.029503   0.000000   0.000000   0.008078
   19  NA 1 YZ   -0.029503  -0.017893   0.000000   0.000000   0.103572
   20  CL 2  S    0.000000   0.000000  -0.011782   0.002363   0.000000
   21  CL 2  S    0.000000   0.000000   0.067636  -0.021306   0.000000
   22  CL 2  X    0.018861  -0.031099   0.000000   0.000000  -0.001640
   23  CL 2  Y    0.031099   0.018861   0.000000   0.000000  -0.021030
   24  CL 2  Z    0.000000   0.000000  -0.023541  -0.023989   0.000000
   25  CL 2  S    0.000000   0.000000  -0.091685  -0.002309   0.000000
   26  CL 2  X   -0.042870   0.070686   0.000000   0.000000   0.004131
   27  CL 2  Y   -0.070686  -0.042870   0.000000   0.000000   0.052962
   28  CL 2  Z    0.000000   0.000000   0.069751   0.057832   0.000000
   29  CL 2  S    0.000000   0.000000  -0.422120   0.221825   0.000000
   30  CL 2  X   -0.092521   0.152554   0.000000   0.000000   0.007513
   31  CL 2  Y   -0.152554  -0.092521   0.000000   0.000000   0.096320
   32  CL 2  Z    0.000000   0.000000  -0.059638   0.027009   0.000000
   33  CL 2 XX    0.000000   0.000000   0.015876  -0.012612   0.000000
   34  CL 2 YY    0.000000   0.000000   0.015876  -0.012612   0.000000
   35  CL 2 ZZ    0.000000   0.000000   0.012151   0.006041   0.000000
   36  CL 2 XY    0.000000   0.000000   0.000000   0.000000   0.000000
   37  CL 2 XZ   -0.002140   0.003528   0.000000   0.000000   0.001903
   38  CL 2 YZ   -0.003528  -0.002140   0.000000   0.000000   0.024399

                     21         22         23         24
                    0.1945     0.2661     0.4452     0.4452
                     A          A          A          A   
    1  NA 1  S    0.000000   0.016686   0.000000   0.000000
    2  NA 1  S    0.000000   0.058435   0.000000   0.000000
    3  NA 1  X    0.210653   0.000000   0.000000   0.000000
    4  NA 1  Y   -0.016430   0.000000   0.000000   0.000000
    5  NA 1  Z    0.000000  -0.155873   0.000000   0.000000
    6  NA 1  S    0.000000   2.404297   0.000000   0.000000
    7  NA 1  X   -1.375717   0.000000   0.000000   0.000000
    8  NA 1  Y    0.107302   0.000000   0.000000   0.000000
    9  NA 1  Z    0.000000   1.576985   0.000000   0.000000
   10  NA 1  S    0.000000  -1.005162   0.000000   0.000000
   11  NA 1  X    0.877767   0.000000   0.000000   0.000000
   12  NA 1  Y   -0.068463   0.000000   0.000000   0.000000
   13  NA 1  Z    0.000000  -0.755218   0.000000   0.000000
   14  NA 1 XX    0.000000  -0.296295   0.000002   0.865118
   15  NA 1 YY    0.000000  -0.296295  -0.000002  -0.865118
   16  NA 1 ZZ    0.000000  -0.587725   0.000000   0.000000
   17  NA 1 XY    0.000000   0.000000  -0.998952   0.000003
   18  NA 1 XZ    0.103572   0.000000   0.000000   0.000000
   19  NA 1 YZ   -0.008078   0.000000   0.000000   0.000000
   20  CL 2  S    0.000000  -0.008536   0.000000   0.000000
   21  CL 2  S    0.000000   0.053606   0.000000   0.000000
   22  CL 2  X   -0.021030   0.000000   0.000000   0.000000
   23  CL 2  Y    0.001640   0.000000   0.000000   0.000000
   24  CL 2  Z    0.000000  -0.069704   0.000000   0.000000
   25  CL 2  S    0.000000  -0.058527   0.000000   0.000000
   26  CL 2  X    0.052962   0.000000   0.000000   0.000000
   27  CL 2  Y   -0.004131   0.000000   0.000000   0.000000
   28  CL 2  Z    0.000000   0.157135   0.000000   0.000000
   29  CL 2  S    0.000000  -0.551758   0.000000   0.000000
   30  CL 2  X    0.096320   0.000000   0.000000   0.000000
   31  CL 2  Y   -0.007513   0.000000   0.000000   0.000000
   32  CL 2  Z    0.000000   0.603346   0.000000   0.000000
   33  CL 2 XX    0.000000   0.003238   0.000000   0.024379
   34  CL 2 YY    0.000000   0.003238  -0.000000  -0.024379
   35  CL 2 ZZ    0.000000   0.034775   0.000000   0.000000
   36  CL 2 XY    0.000000   0.000000  -0.028151   0.000000
   37  CL 2 XZ    0.024399   0.000000   0.000000   0.000000
   38  CL 2 YZ   -0.001903   0.000000   0.000000   0.000000

     ----------------------------------------------------------------
     PROPERTY VALUES FOR THE UHF   SELF-CONSISTENT FIELD WAVEFUNCTION
     ----------------------------------------------------------------

          -----------------
          ENERGY COMPONENTS
          -----------------

         WAVEFUNCTION NORMALIZATION =       1.0000000000

                ONE ELECTRON ENERGY =    -947.7614637661
                TWO ELECTRON ENERGY =     285.0787133200
           NUCLEAR REPULSION ENERGY =      41.2831322689
                                      ------------------
                       TOTAL ENERGY =    -621.3996181772

 ELECTRON-ELECTRON POTENTIAL ENERGY =     285.0787133200
  NUCLEUS-ELECTRON POTENTIAL ENERGY =   -1568.7794911569
   NUCLEUS-NUCLEUS POTENTIAL ENERGY =      41.2831322689
                                      ------------------
             TOTAL POTENTIAL ENERGY =   -1242.4176455680
               TOTAL KINETIC ENERGY =     621.0180273908
                 VIRIAL RATIO (V/T) =       2.0006144601

  ...... PI ENERGY ANALYSIS ......

 ENERGY ANALYSIS:
            FOCK ENERGY=   -377.6040247088
          BARE H ENERGY=   -947.7614637661
     ELECTRONIC ENERGY =   -662.6827442375
         KINETIC ENERGY=    621.0180273908
          N-N REPULSION=     41.2831322689
           TOTAL ENERGY=   -621.3996119686
        SIGMA PART(1+2)=   -513.6595180927
               (K,V1,2)=    506.8414845687  -1195.7328200469    175.2318173855
           PI PART(1+2)=   -149.0232261447
               (K,V1,2)=    114.1765428222   -373.0466711100    109.8469021432
  SIGMA SKELETON, ERROR=   -472.3763858239      0.0000000000
             MIXED PART= 0.00000E+00 0.00000E+00 0.00000E+00 0.00000E+00
 ...... END OF PI ENERGY ANALYSIS ......

          ---------------------------------------
          MULLIKEN AND LOWDIN POPULATION ANALYSES
          ---------------------------------------

     ATOMIC MULLIKEN POPULATION IN EACH MOLECULAR ORBITAL
        ALPHA ORBITALS

                      1          2          3          4          5

                  1.000000   1.000000   1.000000   1.000000   1.000000

    1            -0.000002   1.000003   0.000394   0.000043   0.000010
    2             1.000002  -0.000003   0.999606   0.999957   0.999990

                      6          7          8          9         10

                  1.000000   1.000000   1.000000   1.000000   1.000000

    1             0.000010   0.999534   0.999947   0.999947   0.997777
    2             0.999990   0.000466   0.000053   0.000053   0.002223

                     11         12         13         14

                  1.000000   1.000000   1.000000   1.000000

    1             0.018278   0.093076   0.028452   0.028452
    2             0.981722   0.906924   0.971548   0.971548

     ATOMIC MULLIKEN POPULATION IN EACH MOLECULAR ORBITAL
         BETA ORBITALS

                      1          2          3          4          5

                  1.000000   1.000000   1.000000   1.000000   1.000000

    1            -0.000002   1.000003   0.000394   0.000043   0.000010
    2             1.000002  -0.000003   0.999606   0.999957   0.999990

                      6          7          8          9         10

                  1.000000   1.000000   1.000000   1.000000   1.000000

    1             0.000010   0.999534   0.999947   0.999947   0.997777
    2             0.999990   0.000466   0.000053   0.000053   0.002223

                     11         12         13         14

                  1.000000   1.000000   1.000000   1.000000

    1             0.018278   0.093076   0.028452   0.028452
    2             0.981722   0.906924   0.971548   0.971548

     ATOMIC SPIN POPULATION (ALPHA MINUS BETA)
       ATOM         MULL.POP.                    LOW.POP.
    1 NA            0.000000                     0.000000
    2 CL            0.000000                     0.000000


          ********* ALL ELECTRONS ********

               ----- POPULATIONS IN EACH AO -----
                             MULLIKEN      LOWDIN
              1  NA 1  S      1.99992     1.99949
              2  NA 1  S      2.00060     1.97138
              3  NA 1  X      1.99681     1.97925
              4  NA 1  Y      1.99681     1.97925
              5  NA 1  Z      1.99803     1.97995
              6  NA 1  S      0.10567     0.06557
              7  NA 1  X      0.02913     0.05527
              8  NA 1  Y      0.02913     0.05527
              9  NA 1  Z      0.07416     0.14404
             10  NA 1  S     -0.00882     0.03718
             11  NA 1  X      0.01297     0.02310
             12  NA 1  Y      0.01297     0.02310
             13  NA 1  Z     -0.00063     0.03492
             14  NA 1 XX     -0.00540     0.01265
             15  NA 1 YY     -0.00540     0.01265
             16  NA 1 ZZ      0.06007     0.16317
             17  NA 1 XY      0.00000     0.00000
             18  NA 1 XZ      0.01791     0.03741
             19  NA 1 YZ      0.01791     0.03741
             20  CL 2  S      1.99889     1.99841
             21  CL 2  S      1.99856     1.98217
             22  CL 2  X      1.99409     1.97277
             23  CL 2  Y      1.99409     1.97277
             24  CL 2  Z      1.99370     1.97120
             25  CL 2  S      1.31776     0.62356
             26  CL 2  X      1.18870     1.12767
             27  CL 2  Y      1.18870     1.12767
             28  CL 2  Z      1.16812     1.07553
             29  CL 2  S      0.65726     0.47001
             30  CL 2  X      0.75992     0.80424
             31  CL 2  Y      0.75992     0.80424
             32  CL 2  Z      0.64658     0.71288
             33  CL 2 XX     -0.00258     0.24895
             34  CL 2 YY     -0.00258     0.24895
             35  CL 2 ZZ      0.00610     0.24734
             36  CL 2 XY      0.00000     0.00000
             37  CL 2 XZ      0.00047     0.00029
             38  CL 2 YZ      0.00047     0.00029

          ----- MULLIKEN ATOMIC OVERLAP POPULATIONS -----
          (OFF-DIAGONAL ELEMENTS NEED TO BE MULTIPLIED BY 2)

             1           2

    1   10.1012439
    2    0.2306007  17.4375546

          TOTAL MULLIKEN AND LOWDIN ATOMIC POPULATIONS
       ATOM         MULL.POP.    CHARGE          LOW.POP.     CHARGE
    1 NA           10.331845    0.668155        10.611058    0.388942
    2 CL           17.668155   -0.668155        17.388942   -0.388942

          -------------------------------
          BOND ORDER AND VALENCE ANALYSIS     BOND ORDER THRESHOLD=0.050
          -------------------------------

                   BOND                       BOND                       BOND
  ATOM PAIR DIST  ORDER      ATOM PAIR DIST  ORDER      ATOM PAIR DIST  ORDER
    1   2  2.397  0.613

                       TOTAL       BONDED        FREE
      ATOM            VALENCE     VALENCE     VALENCE
    1 NA                0.613       0.613      -0.000
    2 CL                0.613       0.613      -0.000

          -----------------------------------------
          ATOMIC SPIN DENSITY AT THE NUCLEUS (A.U.)
          -----------------------------------------
                            SPIN DENS    ALPHA DENS     BETA DENS
    1  NA          11.0     0.0000000     390.78327     390.78327
    2  CL          17.0     0.0000000    1511.20835    1511.20835

          ---------------------
          ELECTROSTATIC MOMENTS
          ---------------------

 POINT   1           X           Y           Z (BOHR)    CHARGE
                 0.000000    0.000000   -0.009881       -0.00 (A.U.)
         DX          DY          DZ         /D/  (DEBYE)
     0.000000   -0.000000   -9.529437    9.529437
 ...... END OF PROPERTY EVALUATION ......
 STEP CPU TIME =     0.00 TOTAL CPU TIME =          0.2 (      0.0 MIN)
 TOTAL WALL CLOCK TIME=          0.2 SECONDS, CPU UTILIZATION IS    98.74%
  $VIB   
          IVIB=   0 IATOM=   0 ICOORD=   0 E=     -621.3996181772
  0.000000000E+00 0.000000000E+00 3.121205511E-06 0.000000000E+00 0.000000000E+00
 -3.121224108E-06
  0.000000000E+00-2.219870307E-20-9.529436633E+00
 ......END OF GEOMETRY SEARCH......
 STEP CPU TIME =     0.00 TOTAL CPU TIME =          0.2 (      0.0 MIN)
 TOTAL WALL CLOCK TIME=          0.2 SECONDS, CPU UTILIZATION IS    98.74%
               993587  WORDS OF DYNAMIC MEMORY USED
 EXECUTION OF GAMESS TERMINATED NORMALLY 19:56:14 20-OCT-2025    
----- accounting info -----
Files used on the parent node Macbooks-MacBook-Pro.local were:
-rw-r--r--  1 macbookpro  staff      241 Oct 20 19:56 /Users/macbookpro/local/gamess/scr/nacl_q0m1_uhf_631g_star.F05
-rw-r--r--  1 macbookpro  staff   900080 Oct 20 19:56 /Users/macbookpro/local/gamess/scr/nacl_q0m1_uhf_631g_star.F08
-rw-r--r--  1 macbookpro  staff  2094080 Oct 20 19:56 /Users/macbookpro/local/gamess/scr/nacl_q0m1_uhf_631g_star.F10
-rw-r--r--  1 macbookpro  staff   133543 Oct 20 19:56 /Users/macbookpro/local/gamess/scr/nacl_q0m1_uhf_631g_star.dat
Mon Oct 20 19:56:14 +07 2025
0.235u 0.053s 0:00.29 96.5%	0+0k 0+0io 46pf+0w
