1 : p2_q0m1_uhf_631g_star.inp
----- GAMESS execution script 'rungms' -----
This job is running on host Macbooks-MacBook-Pro.local
under operating system Darwin at Mon Oct 20 19:56:14 +07 2025
Available scratch disk space (Kbyte units) at beginning of the job is
Filesystem   1024-blocks      Used Available Capacity iused      ifree %iused  Mounted on
/dev/disk3s5   482797652 122179376 339913836    27% 1896463 3399138360    0%   /System/Volumes/Data
GAMESS temporary binary files will be written to /Users/macbookpro/local/gamess/scr
GAMESS supplementary output files will be written to /Users/macbookpro/local/gamess/scr
Copying input file /Users/macbookpro/sq2_data/p2_q0m1_uhf_631g_star.inp to your run's scratch directory...
          *******************************************************
          *                                                     *
          *          GAMESS VERSION = 30 JUN 2023 (R1)          *
          *                                                     *
          *              doi.org/10.1063/5.0005188              *
          *                                                     *
          **************** 64 BIT LINUX VERSION *****************

  GAMESS HAS BEEN MADE POSSIBLE WITH IMPORTANT CONTRIBUTIONS FROM
  THE FOLLOWING INDIVIDUALS (IN ALPHABETICAL ORDER):

     IVANA ADAMOVIC, CHRISTINE AIKENS, TOMOKO AKAMA,
     MELISA ALKAN, YURI ALEXEEV, YURIKO AOKI, POOJA ARORA,
     TOSHIO ASADA, ANDREY ASADCHEV, KIM K. BALDRIDGE,
     PRADIPTA BANDYOPADHYAY, TAYLOR A. BARNES, MARIA BARYSZ,
     ROB BELL, JONATHAN BENTZ, COLLEEN BERTONI,
     JERRY A. BOATZ, BRETT BODE, KURT BRORSEN, KURT R. BRORSEN,
     LAIMUTIS BYTAUTAS, CALEB CARLIN, LAURA CARRINGTON,
     GALINA CHABAN, BENOIT CHAMPAGNE, WEI CHEN, MAHITO CHIBA,
     DAN CHIPMAN, CHEOL HO CHOI, TANNER CULPITT,
     DIPAYAN DATTA, PAUL DAY, ALBERT DEFUSCO,
     NUWAN DESILVA, J. EMILIANO DEUSTUA,
     TIM DUDLEY, MICHEL DUPUIS, STEVEN T. ELBERT,
     DMITRI FEDOROV, KATHERINE FERRERAS, MICHAEL FILATOV,
     ALEX FINDLATER,GRAHAM FLETCHER, MARK FREITAG,
     CHRISTIAN FRIEDL, DAVID GARMER, 
     IGOR S. GERASIMOV, KURT GLAESEMANN,
     MARK S. GORDON, JEFFREY R. GOUR, FENG LONG GU,
     EMILIE B. GUIDEZ, ANASTASIA GUNINA, SHARON HAMMES-SCHIFFER,
     MASATAKE HARUTA, KIMIHIKO HIRAO, YASUHIRO IKABATA,
     TZVETELIN IORDANOV, STEPHAN IRLE, KAZUYA ISHIMURA,
     JOE IVANIC, FRANK JENSEN, JAN H. JENSEN, VISVALDAS KAIRYS,
     MUNEAKI KAMIYA, MICHIO KATOUDA, NAOAKI KAWAKAMI, DAN KEMP,
     BERNARD KIRTMAN, KAZUO KITAURA, MARIUSZ KLOBUKOWSKI,
     MASATO KOBAYASHI, KONSTANTIN KOMAROV, PRAKASHAN KORAMBATH,
     JACEK KORCHOWIEC, SHIRO KOSEKI, KAROL KOWALSKI,
     JIMMY KROMANN, STANISLAW A. KUCHARSKI, HENRY KURTZ,
     SAROM SOK LEANG, SEUNGHOON LEE, HUI LI, SHUHUA LI, WEI LI,
     JESSE J. LUTZ, ALEKSANDR O. LYKHIN,
     ILIAS MAGOULAS, MARCIN MAKOWSKI,
     JOANI MATO, NIKITA MATSUNAGA, BENEDETTA MENNUCCI,
     GRANT MERRILL, NORIYUKI MINEZAWA, VLADIMIR MIRONOV,
     EISAKU MIYOSHI, JOHN A. MONTGOMERY JR., HIROTOSHI MORI,
     JONATHAN MULLIN, MONIKA MUSIAL, SHIGERU NAGASE,
     TAKESHI NAGATA, HIROMI NAKAI, TAKAHITO NAKAJIMA,
     YUYA NAKAJIMA, HARUYUKI NAKANO, HIROYA NAKATA, SEAN NEDD,
     HEATHER NETZLOFF, KIET A. NGUYEN, YOSHIO NISHIMOTO,
     BOSILJKA NJEGIC, RYAN OLSON, MIKE PAK, ROBERTO PEVERATI,
     BUU PHAM, PIOTR PIECUCH, ANNA POMOGAEVA, DAVID POOLE,
     SPENCER PRUITT, OLIVIER QUINET, LUKE ROSKOP,
     KLAUS RUEDENBERG, ANDREW SAND, TOSAPORN SATTASATHUCHANA,
     NOZOMI SAWADA, MICHAEL W. SCHMIDT, PATRICK E. SCHNEIDER,
     JUNJI SEINO, PRACHI SHARMA, JUN SHEN, JIM SHOEMAKER,
     YINAN SHU, DEJUN SI, JONATHAN SKONE, LYUDMILA SLIPCHENKO,
     TONY SMITH, JIE SONG, MARK SPACKMAN, CASPER STEINMANN,
     WALT STEVENS, PEIFENG SU, SHUJUN SU, CHET SWALINA,
     CHINAMI TAKASHIMA, TETSUYA TAKETSUGU, ZHEN TAO,
     NANDUN THELLAMUREGE, SEIKEN TOKURA, JACOPO TOMASI,
     TSUGUKI TOUMA, TAKAO TSUNEDA, HIROAKI UMEDA,
     JORGE LUIS GALVEZ VALLEJO, YALI WANG, SIMON WEBB,
     AARON WEST, THERESA L. WINDUS, MARTA WLOCH,
     PENG XU, KIYOSHI YAGI, SUSUMU YANAGISAWA, YANG YANG,
     SOOHAENG YOO, TAKESHI YOSHIKAWA, FEDERICO ZAHARIEV,
     TOBY ZENG

  WHO ARE SUPPORTED BY THEIR INSTITUTION/UNIVERSITY/COMPANY/GROUP
  (IN ALPHABETICAL ORDER):

     EP ANALYTICS,
     FACULTES UNIVERSITAIRES NOTRE-DAME DE LA PAIX,
     INSTITUTE FOR MOLECULAR SCIENCE, IOWA STATE UNIVERSITY,
     JACKSON STATE UNIVERSITY, JOHANNES KEPLER UNIVERSITY LINZ,
     KYUNGPOOK NATIONAL UNIVERSITY
     KYUSHU UNIVERSITY, MICHIGAN STATE UNIVERSITY,
     MIE UNIVERSITY, THE MOLECULAR SCIENCES SOFTWARE INSTITUTE,
     MOSCOW STATE UNIVERSITY,
     N. COPERNICUS UNIVERSITY, NAGOYA UNIVERSITY,
     NANJING UNIVERSITY, NAT. INST. OF ADVANCED INDUSTRIAL
     SCIENCE AND TECHNOLOGY, NATIONAL INST. OF STANDARDS AND
     TECHNOLOGY, NESMEYANOV INSTITUTE OF ORGANOELEMENT COMPOUNDS
     OF RUSSIAN ACADEMY OF SCIENCES, OSAKA PREFECTURE UNIVERSITY,
     PENNSYLVANIA STATE UNIVERSITY, TOKYO INSTITUTE OF TECHNOLOGY,
     UNIVERSITY OF AARHUS, UNIVERSITY OF ALBERTA,
     UNIVERSITY OF CALIFORNIA AT SANTA BARBARA,
     UNIVERSITY OF COPENHAGEN, UNIVERSITY OF IOWA,
     UNIVERSITY OF MEMPHIS, UNIVERSITY OF MINNESOTA,
     UNIVERSITY OF NEBRASKA, UNIVERSITY OF NEW ENGLAND,
     UNIVERSITY OF NOTRE DAME, UNIVERSITY OF PISA,
     UNIVERSITY OF SILESIA, UNIVERSITY OF TOKYO,
     UNIVERSITY OF ZURICH, WASEDA UNIVERSITY,
     YALE UNIVERSITY

  GAMESS SOFTWARE MANAGEMENT TEAM FOR THIS RELEASE:
     MARK S. GORDON (TEAM LEAD),
     BRETT BODE (SENIOR ADVISOR),
     GIUSEPPE BARCA,
     COLLEEN BERTONI,
     KRISTOPHER KEIPERT (ADVISOR),
     SAROM S. LEANG (DEVELOPMENT LEAD),
     BUU PHAM,
     JACKSON HAYES (WEBSITE ADMINISTRATOR),
     PENG XU

 EXECUTION OF GAMESS BEGUN 19:56:14 20-OCT-2025    

            ECHO OF THE FIRST FEW INPUT CARDS -
 INPUT CARD> $CONTRL SCFTYP=UHF ICHARG=0 MULT=1                                             
 INPUT CARD> RUNTYP=OPTIMIZE                                                                
 INPUT CARD> $END                                                                           
 INPUT CARD> $BASIS GBASIS=N31 NGAUSS=6 NDFUNC=1 $END                                       
 INPUT CARD> $DATA                                                                          
 INPUT CARD> ... this is comment ...                                                        
 INPUT CARD> C1                                                                             
 INPUT CARD> P    15   0.00000000   0.00000000   0.96724106                                 
 INPUT CARD> P    15   0.00000000   0.00000000  -0.96724106                                 
 INPUT CARD> $END                                                                           
 INPUT CARD>                                                                                
      1000000 WORDS OF MEMORY AVAILABLE

     BASIS OPTIONS
     -------------
     GBASIS=N31          IGAUSS=       6      POLAR=POPN31  
     NDFUNC=       1     NFFUNC=       0     DIFFSP=       F
     NPFUNC=       0      DIFFS=       F     BASNAM=        


     RUN TITLE
     ---------
  ... this is comment ...                                                        

 THE POINT GROUP OF THE MOLECULE IS C1      
 THE ORDER OF THE PRINCIPAL AXIS IS     0

 ATOM      ATOMIC                      COORDINATES (BOHR)
           CHARGE         X                   Y                   Z
 P          15.0     0.0000000000        0.0000000000        1.8278205675
 P          15.0     0.0000000000        0.0000000000       -1.8278205675

          INTERNUCLEAR DISTANCES (ANGS.)
          ------------------------------

                1 P          2 P     

   1 P       0.0000000    1.9344821 *
   2 P       1.9344821 *  0.0000000  

  * ... LESS THAN  3.000


     ATOMIC BASIS SET
     ----------------
 THE CONTRACTED PRIMITIVE FUNCTIONS HAVE BEEN UNNORMALIZED
 THE CONTRACTED BASIS FUNCTIONS ARE NOW NORMALIZED TO UNITY

  SHELL TYPE  PRIMITIVE        EXPONENT          CONTRACTION COEFFICIENT(S)

 P         

      1   S       1         19413.3000000    0.001851598923
      1   S       2          2909.4200000    0.014206191735
      1   S       3           661.3640000    0.069999459277
      1   S       4           185.7590000    0.240078860331
      1   S       5            59.1943000    0.484761717984
      1   S       6            20.0310000    0.335199804993

      2   L       7           339.4780000   -0.002782170105    0.004564616191
      2   L       8            81.0101000   -0.036049901354    0.033693571881
      2   L       9            25.8780000   -0.116631004382    0.139754883368
      2   L      10             9.4522100    0.096832803638    0.339361716786
      2   L      11             3.6656600    0.614418023082    0.450920623685
      2   L      12             1.4674600    0.403798015170    0.238585800889

      3   L      13             2.1562300   -0.252924113863   -0.017765312733
      3   L      14             0.7489970    0.032851844678    0.274058196433
      3   L      15             0.2831450    1.081254761783    0.785421562957

      4   L      16             0.0998317    1.000000000000    1.000000000000

      5   D      17             0.5500000    1.000000000000

 P         

      6   S      18         19413.3000000    0.001851598923
      6   S      19          2909.4200000    0.014206191735
      6   S      20           661.3640000    0.069999459277
      6   S      21           185.7590000    0.240078860331
      6   S      22            59.1943000    0.484761717984
      6   S      23            20.0310000    0.335199804993

      7   L      24           339.4780000   -0.002782170105    0.004564616191
      7   L      25            81.0101000   -0.036049901354    0.033693571881
      7   L      26            25.8780000   -0.116631004382    0.139754883368
      7   L      27             9.4522100    0.096832803638    0.339361716786
      7   L      28             3.6656600    0.614418023082    0.450920623685
      7   L      29             1.4674600    0.403798015170    0.238585800889

      8   L      30             2.1562300   -0.252924113863   -0.017765312733
      8   L      31             0.7489970    0.032851844678    0.274058196433
      8   L      32             0.2831450    1.081254761783    0.785421562957

      9   L      33             0.0998317    1.000000000000    1.000000000000

     10   D      34             0.5500000    1.000000000000

 TOTAL NUMBER OF BASIS SET SHELLS             =   10
 NUMBER OF CARTESIAN GAUSSIAN BASIS FUNCTIONS =   38
 NUMBER OF ELECTRONS                          =   30
 CHARGE OF MOLECULE                           =    0
 SPIN MULTIPLICITY                            =    1
 NUMBER OF OCCUPIED ORBITALS (ALPHA)          =   15
 NUMBER OF OCCUPIED ORBITALS (BETA )          =   15
 TOTAL NUMBER OF ATOMS                        =    2
 THE NUCLEAR REPULSION ENERGY IS       61.5487110726

 THIS MOLECULE IS RECOGNIZED AS BEING LINEAR,
 ORBITAL LZ DEGENERACY TOLERANCE ETOLLZ= 1.00E-06

     $CONTRL OPTIONS
     ---------------
 SCFTYP=UHF          RUNTYP=OPTIMIZE     EXETYP=RUN     
 MPLEVL=       0     CITYP =NONE         CCTYP =NONE         VBTYP =NONE    
 DFTTYP=NONE         TDDFT =NONE    
 MULT  =       1     ICHARG=       0     NZVAR =       0     COORD =UNIQUE  
 PP    =NONE         RELWFN=NONE         LOCAL =NONE         NUMGRD=       F
 ISPHER=      -1     NOSYM =       0     MAXIT =      30     UNITS =ANGS    
 PLTORB=       F     MOLPLT=       F     AIMPAC=       F     FRIEND=        
 NPRINT=       7     IREST =       0     GEOM  =INPUT   
 NORMF =       0     NORMP =       0     ITOL  =      20     ICUT  =       9
 INTTYP=BEST         GRDTYP=BEST         QMTTOL= 1.0E-06

     $SYSTEM OPTIONS
     ---------------
  REPLICATED MEMORY=     1000000 WORDS (ON EVERY NODE).
 DISTRIBUTED MEMDDI=           0 MILLION WORDS IN AGGREGATE,
 MEMDDI DISTRIBUTED OVER   1 PROCESSORS IS           0 WORDS/PROCESSOR.
 TOTAL MEMORY REQUESTED ON EACH PROCESSOR=     1000000 WORDS.
 TIMLIM=      525600.00 MINUTES, OR     365.0 DAYS.
 PARALL= F  BALTYP=  DLB     KDIAG=    0  COREFL= F
 MXSEQ2=     300 MXSEQ3=     150  mem10=         0  mem22=         0

          ----------------
          PROPERTIES INPUT
          ----------------

     MOMENTS            FIELD           POTENTIAL          DENSITY
 IEMOM =       1   IEFLD =       0   IEPOT =       0   IEDEN =       0
 WHERE =COMASS     WHERE =NUCLEI     WHERE =NUCLEI     WHERE =NUCLEI  
 OUTPUT=BOTH       OUTPUT=BOTH       OUTPUT=BOTH       OUTPUT=BOTH    
 IEMINT=       0   IEFINT=       0                     IEDINT=       0
                                                       MORB  =       0
          EXTRAPOLATION IN EFFECT
          SOSCF IN EFFECT
          DIIS or SOSCF will be reset if energy rises
 ORBITAL PRINTING OPTION: NPREO=     1    38     2     1

     -------------------------------
     INTEGRAL TRANSFORMATION OPTIONS
     -------------------------------
     NWORD  =            0
     CUTTRF = 1.0E-09     MPTRAN =       0
     DIRTRF =       F     AOINTS =DUP     

          ----------------------
          INTEGRAL INPUT OPTIONS
          ----------------------
 NOPK  =       1 NORDER=       0 SCHWRZ=       F

     ------------------------------------------
     THE POINT GROUP IS C1 , NAXIS= 0, ORDER= 1
     ------------------------------------------

     DIMENSIONS OF THE SYMMETRY SUBSPACES ARE
 A   =   38

 ..... DONE SETTING UP THE RUN .....
 STEP CPU TIME =     0.00 TOTAL CPU TIME =          0.0 (      0.0 MIN)
 TOTAL WALL CLOCK TIME=          0.0 SECONDS, CPU UTILIZATION IS    96.63%


          -----------------------------
          STATIONARY POINT LOCATION RUN
          -----------------------------

 OBTAINING INITIAL HESSIAN, HESS=GUESS   
 CARTESIAN COORDINATE OPTIMIZATION USING BADGER'S RULE FORCE CONSTANT GUESS

          PARAMETERS CONTROLLING GEOMETRY SEARCH ARE
          METHOD =QA                  UPHESS =BFGS    
          NNEG   =         0          NFRZ   =         0
          NSTEP  =        50          IFOLOW =         1
          HESS   =GUESS               RESTAR =         F
          IHREP  =         0          HSSEND =         F
          NPRT   =         0          NPUN   =         0
          OPTTOL = 1.000E-04          RMIN   = 1.500E-03
          RMAX   = 1.000E-01          RLIM   = 7.000E-02
          DXMAX  = 3.000E-01          PURIFY =         F
          MOVIE  =         F          TRUPD  =         T
          TRMAX  = 5.000E-01          TRMIN  = 5.000E-02
          ITBMAT =         5          STPT   =         F
          STSTEP = 1.000E-02          PROJCT=          T

 BEGINNING GEOMETRY SEARCH POINT NSERCH=   0 ...

 COORDINATES OF ALL ATOMS ARE (ANGS)
   ATOM   CHARGE       X              Y              Z
 ------------------------------------------------------------
 P          15.0   0.0000000000   0.0000000000   0.9672410600
 P          15.0   0.0000000000   0.0000000000  -0.9672410600

          ********************
          1 ELECTRON INTEGRALS
          ********************
 ...... END OF ONE-ELECTRON INTEGRALS ......
 STEP CPU TIME =     0.00 TOTAL CPU TIME =          0.0 (      0.0 MIN)
 TOTAL WALL CLOCK TIME=          0.0 SECONDS, CPU UTILIZATION IS    96.99%

          -------------
          GUESS OPTIONS
          -------------
          GUESS =HUCKEL            NORB  =       0          NORDER=       0
          MIX   =       F          PRTMO =       F          PUNMO =       F
          TOLZ  = 1.0E-08          TOLE  = 1.0E-05
          SYMDEN=       F          PURIFY=       F

 INITIAL GUESS ORBITALS GENERATED BY HUCKEL   ROUTINE.
 HUCKEL GUESS REQUIRES     13778 WORDS.

 SYMMETRIES FOR INITIAL GUESS ORBITALS FOLLOW.  ALPHA SET(S).
    15 ORBITALS ARE OCCUPIED (   10 CORE ORBITALS).
    11=A       12=A       13=A       14=A       15=A       16=A       17=A   
    18=A       19=A       20=A       21=A       22=A       23=A       24=A   
    25=A   

 SYMMETRIES FOR INITIAL GUESS ORBITALS FOLLOW.   BETA SET(S).
    15 ORBITALS ARE OCCUPIED (   10 CORE ORBITALS).
    11=A       12=A       13=A       14=A       15=A       16=A       17=A   
    18=A       19=A       20=A       21=A       22=A       23=A       24=A   
    25=A   
 ...... END OF INITIAL ORBITAL SELECTION ......
 STEP CPU TIME =     0.00 TOTAL CPU TIME =          0.0 (      0.0 MIN)
 TOTAL WALL CLOCK TIME=          0.0 SECONDS, CPU UTILIZATION IS    97.53%

                    ----------------------
                    AO INTEGRAL TECHNOLOGY
                    ----------------------
     S,P,L SHELL ROTATED AXIS INTEGRALS, REPROGRAMMED BY
        KAZUYA ISHIMURA (IMS) AND JOSE SIERRA (SYNSTAR).
     S,P,D,L SHELL ROTATED AXIS INTEGRALS PROGRAMMED BY
        KAZUYA ISHIMURA (INSTITUTE FOR MOLECULAR SCIENCE).
     S,P,D,F,G SHELL TO TOTAL QUARTET ANGULAR MOMENTUM SUM 5,
        ERIC PROGRAM BY GRAHAM FLETCHER (ELORET AND NASA ADVANCED
        SUPERCOMPUTING DIVISION, AMES RESEARCH CENTER).
     S,P,D,F,G,L SHELL GENERAL RYS QUADRATURE PROGRAMMED BY
        MICHEL DUPUIS (PACIFIC NORTHWEST NATIONAL LABORATORY).

          --------------------
          2 ELECTRON INTEGRALS
          --------------------

 THE -PK- OPTION IS OFF, THE INTEGRALS ARE NOT IN SUPERMATRIX FORM.
 STORING   15000 INTEGRALS/RECORD ON DISK, USING 12 BYTES/INTEGRAL.
 TWO ELECTRON INTEGRAL EVALUATION REQUIRES   90451 WORDS OF MEMORY.
 II,JST,KST,LST =  1  1  1  1 NREC =         1 INTLOC =    1
 II,JST,KST,LST =  2  1  1  1 NREC =         1 INTLOC =    2
 II,JST,KST,LST =  3  1  1  1 NREC =         1 INTLOC =   34
 II,JST,KST,LST =  4  1  1  1 NREC =         1 INTLOC =  214
 II,JST,KST,LST =  5  1  1  1 NREC =         1 INTLOC =  776
 II,JST,KST,LST =  6  1  1  1 NREC =         1 INTLOC = 2864
 II,JST,KST,LST =  7  1  1  1 NREC =         1 INTLOC = 3777
 II,JST,KST,LST =  8  1  1  1 NREC =         1 INTLOC = 9795
 II,JST,KST,LST =  9  1  1  1 NREC =         2 INTLOC = 5127
 II,JST,KST,LST = 10  1  1  1 NREC =         3 INTLOC = 5689
 TOTAL NUMBER OF NONZERO TWO-ELECTRON INTEGRALS =               70055
          5 INTEGRAL RECORDS WERE STORED ON DISK FILE  8.
  ...... END OF TWO-ELECTRON INTEGRALS .....
 STEP CPU TIME =     0.01 TOTAL CPU TIME =          0.0 (      0.0 MIN)
 TOTAL WALL CLOCK TIME=          0.0 SECONDS, CPU UTILIZATION IS    99.25%

          ---------------------------
                  UHF SCF CALCULATION
          ---------------------------

     NUCLEAR ENERGY =        61.5487110726
     MAXIT = 30     NPUNCH=  2     MULT=  1
     EXTRAP=T  DAMP=F  SHIFT=F  RSTRCT=F  DIIS=F  SOSCF=T
     DENSITY MATRIX CONV=  1.00E-05
     SOSCF WILL OPTIMIZE     345 ALPHA AND     345 BETA ROTATION ANGLES.
     SOGTOL= 2.500E-01
     MEMORY REQUIRED FOR UHF/ROHF ITERS=     49878 WORDS.

 ITER EX      TOTAL ENERGY        E CHANGE  DENSITY CHANGE    ORB. GRAD 
   1  0     -681.0436496599  -681.0436496599   0.287102225   0.000000000
          ---------------START SECOND ORDER SCF---------------
   2  1     -681.4118069238    -0.3681572639   0.039794222   0.027278674
   3  2     -681.4194750402    -0.0076681164   0.030663461   0.009437001
   4  3     -681.4201374668    -0.0006624266   0.005937998   0.001842628
   5  4     -681.4201736847    -0.0000362179   0.000762610   0.000241201
   6  5     -681.4201747384    -0.0000010537   0.000352250   0.000068606
   7  6     -681.4201747966    -0.0000000582   0.000059268   0.000014401
   8  7     -681.4201747978    -0.0000000012   0.000005792   0.000003450
   9  8     -681.4201747979    -0.0000000000   0.000000678   0.000000345

          -----------------
          DENSITY CONVERGED
          -----------------
     TIME TO FORM FOCK OPERATORS=       0.0 SECONDS (       0.0 SEC/ITER)
     TIME TO SOLVE SCF EQUATIONS=       0.0 SECONDS (       0.0 SEC/ITER)

 FINAL UHF ENERGY IS     -681.4201747979 AFTER   9 ITERATIONS

          --------------------
          SPIN SZ   =    0.000
          S-SQUARED =   -0.000
          --------------------

 LZ VALUE ANALYSIS FOR THE MOS
 ----------------------------------------
 MO     1 (    1) HAS LZ(WEIGHT)= 0.00(100.0%) 
 MO     2 (    2) HAS LZ(WEIGHT)= 0.00(100.0%) 
 MO     3 (    3) HAS LZ(WEIGHT)= 0.00(100.0%) 
 MO     4 (    4) HAS LZ(WEIGHT)= 0.00(100.0%) 
 MO     5 (    5) HAS LZ(WEIGHT)= 0.00(100.0%) 
 MO     6 (    6) HAS LZ(WEIGHT)=-1.00( 50.0%)  1.00( 50.0%) 
 MO     7 (    6) HAS LZ(WEIGHT)=-1.00( 50.0%)  1.00( 50.0%) 
 MO     8 (    7) HAS LZ(WEIGHT)=-1.00( 50.0%)  1.00( 50.0%) 
 MO     9 (    7) HAS LZ(WEIGHT)=-1.00( 50.0%)  1.00( 50.0%) 
 MO    10 (    8) HAS LZ(WEIGHT)= 0.00(100.0%) 
 MO    11 (    9) HAS LZ(WEIGHT)= 0.00(100.0%) 
 MO    12 (   10) HAS LZ(WEIGHT)= 0.00(100.0%) 
 MO    13 (   11) HAS LZ(WEIGHT)= 0.00(100.0%) 
 MO    14 (   12) HAS LZ(WEIGHT)=-1.00( 50.0%)  1.00( 50.0%) 
 MO    15 (   12) HAS LZ(WEIGHT)=-1.00( 50.0%)  1.00( 50.0%) 
 MO    16 (   13) HAS LZ(WEIGHT)=-1.00( 50.0%)  1.00( 50.0%) 
 MO    17 (   13) HAS LZ(WEIGHT)=-1.00( 50.0%)  1.00( 50.0%) 
 MO    18 (   14) HAS LZ(WEIGHT)= 0.00(100.0%) 
 MO    19 (   15) HAS LZ(WEIGHT)= 0.00(100.0%) 
 MO    20 (   16) HAS LZ(WEIGHT)= 0.00(100.0%) 
 MO    21 (   17) HAS LZ(WEIGHT)=-1.00( 50.0%)  1.00( 50.0%) 
 MO    22 (   17) HAS LZ(WEIGHT)=-1.00( 50.0%)  1.00( 50.0%) 
 MO    23 (   18) HAS LZ(WEIGHT)= 0.00(100.0%) 
 MO    24 (   19) HAS LZ(WEIGHT)=-1.00( 50.0%)  1.00( 50.0%) 
 MO    25 (   19) HAS LZ(WEIGHT)=-1.00( 50.0%)  1.00( 50.0%) 
 MO    26 (   20) HAS LZ(WEIGHT)= 0.00(100.0%) 
 MO    27 (   21) HAS LZ(WEIGHT)=-1.00( 50.0%)  1.00( 50.0%) 
 MO    28 (   21) HAS LZ(WEIGHT)=-1.00( 50.0%)  1.00( 50.0%) 
 MO    29 (   22) HAS LZ(WEIGHT)=-2.00( 50.0%)  2.00( 50.0%) 
 MO    30 (   22) HAS LZ(WEIGHT)=-2.00( 50.0%)  2.00( 50.0%) 
 MO    31 (   23) HAS LZ(WEIGHT)=-2.00( 50.0%)  2.00( 50.0%) 
 MO    32 (   23) HAS LZ(WEIGHT)=-2.00( 50.0%)  2.00( 50.0%) 
 MO    33 (   24) HAS LZ(WEIGHT)= 0.00(100.0%) 
 MO    34 (   25) HAS LZ(WEIGHT)=-1.00( 50.0%)  1.00( 50.0%) 
 MO    35 (   25) HAS LZ(WEIGHT)=-1.00( 50.0%)  1.00( 50.0%) 
 MO    36 (   26) HAS LZ(WEIGHT)= 0.00(100.0%) 
 MO    37 (   27) HAS LZ(WEIGHT)= 0.00(100.0%) 
 MO    38 (   28) HAS LZ(WEIGHT)= 0.00(100.0%) 

  ----- ALPHA SET ----- 

          ------------
          EIGENVECTORS
          ------------

                      1          2          3          4          5
                  -79.9756   -79.9756    -7.5255    -7.5249    -5.4176
                     A          A          A          A          A   
    1  P  1  S   -0.704577   0.704592  -0.195272   0.195302  -0.000566
    2  P  1  S   -0.009510   0.009563   0.728892  -0.729187   0.002331
    3  P  1  X    0.000000  -0.000000   0.000000   0.000000   0.000000
    4  P  1  Y    0.000000  -0.000000   0.000000   0.000000   0.000000
    5  P  1  Z    0.000050  -0.000047  -0.001185   0.001150   0.702812
    6  P  1  S    0.015669  -0.014955   0.011420  -0.012411  -0.001695
    7  P  1  X    0.000000  -0.000000   0.000000   0.000000   0.000000
    8  P  1  Y    0.000000  -0.000000   0.000000   0.000000   0.000000
    9  P  1  Z   -0.000291  -0.000055  -0.000645   0.000679   0.013339
   10  P  1  S   -0.003822   0.001984  -0.002254   0.006164  -0.000405
   11  P  1  X    0.000000  -0.000000   0.000000   0.000000   0.000000
   12  P  1  Y    0.000000  -0.000000   0.000000   0.000000   0.000000
   13  P  1  Z    0.000899  -0.000058   0.000296  -0.002128  -0.003253
   14  P  1 XX   -0.005275   0.005228  -0.000710   0.000850   0.000517
   15  P  1 YY   -0.005275   0.005228  -0.000710   0.000850   0.000517
   16  P  1 ZZ   -0.005260   0.005211  -0.000638   0.000806  -0.000230
   17  P  1 XY    0.000000  -0.000000   0.000000   0.000000   0.000000
   18  P  1 XZ    0.000000  -0.000000   0.000000   0.000000   0.000000
   19  P  1 YZ    0.000000  -0.000000   0.000000   0.000000   0.000000
   20  P  2  S    0.704577   0.704592  -0.195272  -0.195302  -0.000566
   21  P  2  S    0.009510   0.009563   0.728892   0.729187   0.002331
   22  P  2  X    0.000000  -0.000000   0.000000   0.000000   0.000000
   23  P  2  Y    0.000000  -0.000000   0.000000   0.000000   0.000000
   24  P  2  Z    0.000050   0.000047   0.001185   0.001150  -0.702812
   25  P  2  S   -0.015669  -0.014955   0.011420   0.012411  -0.001695
   26  P  2  X    0.000000  -0.000000   0.000000   0.000000   0.000000
   27  P  2  Y    0.000000  -0.000000   0.000000   0.000000   0.000000
   28  P  2  Z   -0.000291   0.000055   0.000645   0.000679  -0.013339
   29  P  2  S    0.003822   0.001984  -0.002254  -0.006164  -0.000405
   30  P  2  X    0.000000  -0.000000   0.000000   0.000000   0.000000
   31  P  2  Y    0.000000  -0.000000   0.000000   0.000000   0.000000
   32  P  2  Z    0.000899   0.000058  -0.000296  -0.002128   0.003253
   33  P  2 XX    0.005275   0.005228  -0.000710  -0.000850   0.000517
   34  P  2 YY    0.005275   0.005228  -0.000710  -0.000850   0.000517
   35  P  2 ZZ    0.005260   0.005211  -0.000638  -0.000806  -0.000230
   36  P  2 XY    0.000000  -0.000000   0.000000   0.000000   0.000000
   37  P  2 XZ    0.000000  -0.000000   0.000000   0.000000   0.000000
   38  P  2 YZ    0.000000  -0.000000   0.000000   0.000000   0.000000

                      6          7          8          9         10
                   -5.4168    -5.4168    -5.4166    -5.4166    -5.4158
                     A          A          A          A          A   
    1  P  1  S   -0.000000  -0.000000   0.000000   0.000000  -0.000372
    2  P  1  S   -0.000000  -0.000000   0.000000   0.000000   0.001329
    3  P  1  X    0.545989  -0.443095  -0.673911   0.200631   0.000000
    4  P  1  Y    0.443095   0.545989  -0.200631  -0.673911   0.000000
    5  P  1  Z   -0.000000  -0.000000   0.000000   0.000000   0.703500
    6  P  1  S   -0.000000  -0.000000   0.000000   0.000000  -0.002776
    7  P  1  X    0.010553  -0.008565  -0.013502   0.004020   0.000000
    8  P  1  Y    0.008565   0.010553  -0.004020  -0.013502   0.000000
    9  P  1  Z   -0.000000  -0.000000   0.000000   0.000000   0.014255
   10  P  1  S   -0.000000  -0.000000   0.000000   0.000000   0.002312
   11  P  1  X   -0.002314   0.001878   0.004020  -0.001197   0.000000
   12  P  1  Y   -0.001878  -0.002314   0.001197   0.004020   0.000000
   13  P  1  Z   -0.000000  -0.000000   0.000000   0.000000  -0.003862
   14  P  1 XX   -0.000000  -0.000000   0.000000   0.000000   0.000761
   15  P  1 YY   -0.000000  -0.000000   0.000000   0.000000   0.000761
   16  P  1 ZZ   -0.000000  -0.000000   0.000000   0.000000  -0.000318
   17  P  1 XY   -0.000000  -0.000000   0.000000   0.000000   0.000000
   18  P  1 XZ    0.000084  -0.000068   0.000197  -0.000059   0.000000
   19  P  1 YZ    0.000068   0.000084   0.000059   0.000197   0.000000
   20  P  2  S   -0.000000  -0.000000   0.000000   0.000000   0.000372
   21  P  2  S   -0.000000  -0.000000   0.000000   0.000000  -0.001329
   22  P  2  X    0.545989  -0.443095   0.673911  -0.200631   0.000000
   23  P  2  Y    0.443095   0.545989   0.200631   0.673911   0.000000
   24  P  2  Z   -0.000000  -0.000000   0.000000   0.000000   0.703500
   25  P  2  S   -0.000000  -0.000000   0.000000   0.000000   0.002776
   26  P  2  X    0.010553  -0.008565   0.013502  -0.004020   0.000000
   27  P  2  Y    0.008565   0.010553   0.004020   0.013502   0.000000
   28  P  2  Z   -0.000000  -0.000000   0.000000   0.000000   0.014255
   29  P  2  S   -0.000000  -0.000000   0.000000   0.000000  -0.002312
   30  P  2  X   -0.002314   0.001878  -0.004020   0.001197   0.000000
   31  P  2  Y   -0.001878  -0.002314  -0.001197  -0.004020   0.000000
   32  P  2  Z   -0.000000  -0.000000   0.000000   0.000000  -0.003862
   33  P  2 XX   -0.000000  -0.000000   0.000000   0.000000  -0.000761
   34  P  2 YY   -0.000000  -0.000000   0.000000   0.000000  -0.000761
   35  P  2 ZZ   -0.000000  -0.000000   0.000000   0.000000   0.000318
   36  P  2 XY   -0.000000  -0.000000   0.000000   0.000000   0.000000
   37  P  2 XZ   -0.000084   0.000068   0.000197  -0.000059   0.000000
   38  P  2 YZ   -0.000068  -0.000084   0.000059   0.000197   0.000000

                     11         12         13         14         15
                   -0.9027    -0.6134    -0.4094    -0.3672    -0.3672
                     A          A          A          A          A   
    1  P  1  S    0.048560   0.049415   0.013523   0.000000   0.000000
    2  P  1  S   -0.226204  -0.230882  -0.068753   0.000000   0.000000
    3  P  1  X   -0.000000  -0.000000  -0.000000  -0.155625   0.051694
    4  P  1  Y   -0.000000  -0.000000  -0.000000  -0.051694  -0.155625
    5  P  1  Z    0.070378  -0.064476  -0.187245   0.000000   0.000000
    6  P  1  S    0.440556   0.491156   0.130606   0.000000   0.000000
    7  P  1  X   -0.000000  -0.000000  -0.000000   0.403619  -0.134071
    8  P  1  Y   -0.000000  -0.000000  -0.000000   0.134071   0.403619
    9  P  1  Z   -0.153589   0.167436   0.491334   0.000000   0.000000
   10  P  1  S    0.161559   0.316751   0.236934   0.000000   0.000000
   11  P  1  X   -0.000000  -0.000000  -0.000000   0.251223  -0.083449
   12  P  1  Y   -0.000000  -0.000000  -0.000000   0.083449   0.251223
   13  P  1  Z   -0.004761   0.044669   0.182782   0.000000   0.000000
   14  P  1 XX   -0.013086   0.005330   0.019187   0.000000   0.000000
   15  P  1 YY   -0.013086   0.005330   0.019187   0.000000   0.000000
   16  P  1 ZZ    0.044376  -0.012322  -0.048090   0.000000   0.000000
   17  P  1 XY   -0.000000  -0.000000  -0.000000   0.000000   0.000000
   18  P  1 XZ   -0.000000  -0.000000  -0.000000  -0.058787   0.019527
   19  P  1 YZ   -0.000000  -0.000000  -0.000000  -0.019527  -0.058787
   20  P  2  S    0.048560  -0.049415   0.013523   0.000000   0.000000
   21  P  2  S   -0.226204   0.230882  -0.068753   0.000000   0.000000
   22  P  2  X   -0.000000  -0.000000  -0.000000  -0.155625   0.051694
   23  P  2  Y   -0.000000  -0.000000  -0.000000  -0.051694  -0.155625
   24  P  2  Z   -0.070378  -0.064476   0.187245   0.000000   0.000000
   25  P  2  S    0.440556  -0.491156   0.130606   0.000000   0.000000
   26  P  2  X   -0.000000  -0.000000  -0.000000   0.403619  -0.134071
   27  P  2  Y   -0.000000  -0.000000  -0.000000   0.134071   0.403619
   28  P  2  Z    0.153589   0.167436  -0.491334   0.000000   0.000000
   29  P  2  S    0.161559  -0.316751   0.236934   0.000000   0.000000
   30  P  2  X   -0.000000  -0.000000  -0.000000   0.251223  -0.083449
   31  P  2  Y   -0.000000  -0.000000  -0.000000   0.083449   0.251223
   32  P  2  Z    0.004761   0.044669  -0.182782   0.000000   0.000000
   33  P  2 XX   -0.013086  -0.005330   0.019187   0.000000   0.000000
   34  P  2 YY   -0.013086  -0.005330   0.019187   0.000000   0.000000
   35  P  2 ZZ    0.044376   0.012322  -0.048090   0.000000   0.000000
   36  P  2 XY   -0.000000  -0.000000  -0.000000   0.000000   0.000000
   37  P  2 XZ   -0.000000  -0.000000  -0.000000   0.058787  -0.019527
   38  P  2 YZ   -0.000000  -0.000000  -0.000000   0.019527   0.058787

                     16         17         18         19         20
                    0.0140     0.0140     0.1850     0.3124     0.3921
                     A          A          A          A          A   
    1  P  1  S   -0.000000   0.000000  -0.024772   0.031609  -0.034766
    2  P  1  S   -0.000000   0.000000   0.134423  -0.000308   0.063102
    3  P  1  X    0.029798  -0.154119  -0.000000   0.000000   0.000000
    4  P  1  Y    0.154119   0.029798  -0.000000   0.000000   0.000000
    5  P  1  Z   -0.000000   0.000000  -0.083338   0.054243   0.129833
    6  P  1  S   -0.000000   0.000000  -0.224761   0.854967  -0.756793
    7  P  1  X   -0.076261   0.394430  -0.000000   0.000000   0.000000
    8  P  1  Y   -0.394430  -0.076261  -0.000000   0.000000   0.000000
    9  P  1  Z   -0.000000   0.000000   0.206049  -0.341496  -0.582378
   10  P  1  S   -0.000000   0.000000  -1.858260  -0.696903   0.878275
   11  P  1  X   -0.112328   0.580970  -0.000000   0.000000   0.000000
   12  P  1  Y   -0.580970  -0.112328  -0.000000   0.000000   0.000000
   13  P  1  Z   -0.000000   0.000000   1.705911   0.615558   0.739986
   14  P  1 XX   -0.000000   0.000000  -0.034530  -0.060028  -0.043208
   15  P  1 YY   -0.000000   0.000000  -0.034530  -0.060028  -0.043208
   16  P  1 ZZ   -0.000000   0.000000   0.080052   0.212526   0.050865
   17  P  1 XY   -0.000000   0.000000  -0.000000   0.000000   0.000000
   18  P  1 XZ   -0.007156   0.037013  -0.000000   0.000000   0.000000
   19  P  1 YZ   -0.037013  -0.007156  -0.000000   0.000000   0.000000
   20  P  2  S   -0.000000   0.000000   0.024772   0.031609  -0.034766
   21  P  2  S   -0.000000   0.000000  -0.134423  -0.000308   0.063102
   22  P  2  X   -0.029798   0.154119  -0.000000   0.000000   0.000000
   23  P  2  Y   -0.154119  -0.029798  -0.000000   0.000000   0.000000
   24  P  2  Z   -0.000000   0.000000  -0.083338  -0.054243  -0.129833
   25  P  2  S   -0.000000   0.000000   0.224761   0.854967  -0.756793
   26  P  2  X    0.076261  -0.394430  -0.000000   0.000000   0.000000
   27  P  2  Y    0.394430   0.076261  -0.000000   0.000000   0.000000
   28  P  2  Z   -0.000000   0.000000   0.206049   0.341496   0.582378
   29  P  2  S   -0.000000   0.000000   1.858260  -0.696903   0.878275
   30  P  2  X    0.112328  -0.580970  -0.000000   0.000000   0.000000
   31  P  2  Y    0.580970   0.112328  -0.000000   0.000000   0.000000
   32  P  2  Z   -0.000000   0.000000   1.705911  -0.615558  -0.739986
   33  P  2 XX   -0.000000   0.000000   0.034530  -0.060028  -0.043208
   34  P  2 YY   -0.000000   0.000000   0.034530  -0.060028  -0.043208
   35  P  2 ZZ   -0.000000   0.000000  -0.080052   0.212526   0.050865
   36  P  2 XY   -0.000000   0.000000  -0.000000   0.000000   0.000000
   37  P  2 XZ   -0.007156   0.037013  -0.000000   0.000000   0.000000
   38  P  2 YZ   -0.037013  -0.007156  -0.000000   0.000000   0.000000

                     21         22         23         24         25
                    0.4417     0.4417     0.4779     0.5197     0.5197
                     A          A          A          A          A   
    1  P  1  S   -0.000000  -0.000000  -0.030574   0.000000  -0.000000
    2  P  1  S   -0.000000  -0.000000  -0.018169   0.000000  -0.000000
    3  P  1  X   -0.061746  -0.181457   0.000000  -0.112868   0.190816
    4  P  1  Y   -0.181457   0.061746   0.000000   0.190816   0.112868
    5  P  1  Z   -0.000000  -0.000000   0.167671   0.000000  -0.000000
    6  P  1  S   -0.000000  -0.000000  -0.906609   0.000000  -0.000000
    7  P  1  X    0.271437   0.797684   0.000000   0.485065  -0.820055
    8  P  1  Y    0.797684  -0.271437   0.000000  -0.820055  -0.485065
    9  P  1  Z   -0.000000  -0.000000  -0.698913   0.000000  -0.000000
   10  P  1  S   -0.000000  -0.000000   1.966826   0.000000  -0.000000
   11  P  1  X   -0.243293  -0.714976   0.000000  -0.604837   1.022544
   12  P  1  Y   -0.714976   0.243293   0.000000   1.022544   0.604837
   13  P  1  Z   -0.000000  -0.000000  -0.195720   0.000000  -0.000000
   14  P  1 XX   -0.000000  -0.000000   0.028951   0.000000  -0.000000
   15  P  1 YY   -0.000000  -0.000000   0.028951   0.000000  -0.000000
   16  P  1 ZZ   -0.000000  -0.000000  -0.127293   0.000000  -0.000000
   17  P  1 XY   -0.000000  -0.000000   0.000000   0.000000  -0.000000
   18  P  1 XZ   -0.040942  -0.120318   0.000000  -0.000155   0.000261
   19  P  1 YZ   -0.120318   0.040942   0.000000   0.000261   0.000155
   20  P  2  S   -0.000000  -0.000000   0.030574   0.000000  -0.000000
   21  P  2  S   -0.000000  -0.000000   0.018169   0.000000  -0.000000
   22  P  2  X   -0.061746  -0.181457   0.000000   0.112868  -0.190816
   23  P  2  Y   -0.181457   0.061746   0.000000  -0.190816  -0.112868
   24  P  2  Z   -0.000000  -0.000000   0.167671   0.000000  -0.000000
   25  P  2  S   -0.000000  -0.000000   0.906609   0.000000  -0.000000
   26  P  2  X    0.271437   0.797684   0.000000  -0.485065   0.820055
   27  P  2  Y    0.797684  -0.271437   0.000000   0.820055   0.485065
   28  P  2  Z   -0.000000  -0.000000  -0.698913   0.000000  -0.000000
   29  P  2  S   -0.000000  -0.000000  -1.966826   0.000000  -0.000000
   30  P  2  X   -0.243293  -0.714976   0.000000   0.604837  -1.022544
   31  P  2  Y   -0.714976   0.243293   0.000000  -1.022544  -0.604837
   32  P  2  Z   -0.000000  -0.000000  -0.195720   0.000000  -0.000000
   33  P  2 XX   -0.000000  -0.000000  -0.028951   0.000000  -0.000000
   34  P  2 YY   -0.000000  -0.000000  -0.028951   0.000000  -0.000000
   35  P  2 ZZ   -0.000000  -0.000000   0.127293   0.000000  -0.000000
   36  P  2 XY   -0.000000  -0.000000   0.000000   0.000000  -0.000000
   37  P  2 XZ    0.040942   0.120318   0.000000  -0.000155   0.000261
   38  P  2 YZ    0.120318  -0.040942   0.000000   0.000261   0.000155

                     26         27         28         29         30
                    0.6474     0.7419     0.7419     0.8582     0.8582
                     A          A          A          A          A   
    1  P  1  S   -0.043588  -0.000000   0.000000   0.000000  -0.000000
    2  P  1  S   -0.007099  -0.000000   0.000000   0.000000  -0.000000
    3  P  1  X    0.000000  -0.058808  -0.038353   0.000000  -0.000000
    4  P  1  Y    0.000000  -0.038353   0.058808   0.000000  -0.000000
    5  P  1  Z   -0.181983  -0.000000   0.000000   0.000000  -0.000000
    6  P  1  S   -1.226297  -0.000000   0.000000   0.000000  -0.000000
    7  P  1  X    0.000000   0.223318   0.145644   0.000000  -0.000000
    8  P  1  Y    0.000000   0.145644  -0.223318   0.000000  -0.000000
    9  P  1  Z    0.762689  -0.000000   0.000000   0.000000  -0.000000
   10  P  1  S    3.964765  -0.000000   0.000000   0.000000  -0.000000
   11  P  1  X    0.000000  -0.087626  -0.057148   0.000000  -0.000000
   12  P  1  Y    0.000000  -0.057148   0.087626   0.000000  -0.000000
   13  P  1  Z   -2.375860  -0.000000   0.000000   0.000000  -0.000000
   14  P  1 XX   -0.096495  -0.000000   0.000000   0.604755  -0.000003
   15  P  1 YY   -0.096495  -0.000000   0.000000  -0.604755   0.000003
   16  P  1 ZZ    0.097693  -0.000000   0.000000   0.000000  -0.000000
   17  P  1 XY    0.000000  -0.000000   0.000000   0.000004   0.698311
   18  P  1 XZ    0.000000   0.540061   0.352217   0.000000  -0.000000
   19  P  1 YZ    0.000000   0.352217  -0.540061   0.000000  -0.000000
   20  P  2  S    0.043588  -0.000000   0.000000   0.000000  -0.000000
   21  P  2  S    0.007099  -0.000000   0.000000   0.000000  -0.000000
   22  P  2  X    0.000000  -0.058808  -0.038353   0.000000  -0.000000
   23  P  2  Y    0.000000  -0.038353   0.058808   0.000000  -0.000000
   24  P  2  Z   -0.181983  -0.000000   0.000000   0.000000  -0.000000
   25  P  2  S    1.226297  -0.000000   0.000000   0.000000  -0.000000
   26  P  2  X    0.000000   0.223318   0.145644   0.000000  -0.000000
   27  P  2  Y    0.000000   0.145644  -0.223318   0.000000  -0.000000
   28  P  2  Z    0.762689  -0.000000   0.000000   0.000000  -0.000000
   29  P  2  S   -3.964765  -0.000000   0.000000   0.000000  -0.000000
   30  P  2  X    0.000000  -0.087626  -0.057148   0.000000  -0.000000
   31  P  2  Y    0.000000  -0.057148   0.087626   0.000000  -0.000000
   32  P  2  Z   -2.375860  -0.000000   0.000000   0.000000  -0.000000
   33  P  2 XX    0.096495  -0.000000   0.000000   0.604755  -0.000003
   34  P  2 YY    0.096495  -0.000000   0.000000  -0.604755   0.000003
   35  P  2 ZZ   -0.097693  -0.000000   0.000000   0.000000  -0.000000
   36  P  2 XY    0.000000  -0.000000   0.000000   0.000004   0.698311
   37  P  2 XZ    0.000000  -0.540061  -0.352217   0.000000  -0.000000
   38  P  2 YZ    0.000000  -0.352217   0.540061   0.000000  -0.000000

                     31         32         33         34         35
                    0.9602     0.9602     0.9780     1.1809     1.1809
                     A          A          A          A          A   
    1  P  1  S   -0.000000  -0.000000  -0.016461   0.000000  -0.000000
    2  P  1  S   -0.000000  -0.000000   0.009422   0.000000  -0.000000
    3  P  1  X   -0.000000  -0.000000  -0.000000  -0.000283   0.020519
    4  P  1  Y   -0.000000  -0.000000  -0.000000   0.020519   0.000283
    5  P  1  Z   -0.000000  -0.000000  -0.089958   0.000000  -0.000000
    6  P  1  S   -0.000000  -0.000000  -0.426096   0.000000  -0.000000
    7  P  1  X   -0.000000  -0.000000  -0.000000   0.000627  -0.045542
    8  P  1  Y   -0.000000  -0.000000  -0.000000  -0.045542  -0.000627
    9  P  1  Z   -0.000000  -0.000000   0.464114   0.000000  -0.000000
   10  P  1  S   -0.000000  -0.000000   0.230526   0.000000  -0.000000
   11  P  1  X   -0.000000  -0.000000  -0.000000   0.002749  -0.199694
   12  P  1  Y   -0.000000  -0.000000  -0.000000  -0.199694  -0.002749
   13  P  1  Z   -0.000000  -0.000000  -0.487231   0.000000  -0.000000
   14  P  1 XX    0.620285   0.000002  -0.338894   0.000000  -0.000000
   15  P  1 YY   -0.620285  -0.000002  -0.338894   0.000000  -0.000000
   16  P  1 ZZ   -0.000000  -0.000000   0.621787   0.000000  -0.000000
   17  P  1 XY   -0.000003   0.716243  -0.000000   0.000000  -0.000000
   18  P  1 XZ   -0.000000  -0.000000  -0.000000  -0.010808   0.785001
   19  P  1 YZ   -0.000000  -0.000000  -0.000000   0.785001   0.010808
   20  P  2  S   -0.000000  -0.000000  -0.016461   0.000000  -0.000000
   21  P  2  S   -0.000000  -0.000000   0.009422   0.000000  -0.000000
   22  P  2  X   -0.000000  -0.000000  -0.000000   0.000283  -0.020519
   23  P  2  Y   -0.000000  -0.000000  -0.000000  -0.020519  -0.000283
   24  P  2  Z   -0.000000  -0.000000   0.089958   0.000000  -0.000000
   25  P  2  S   -0.000000  -0.000000  -0.426096   0.000000  -0.000000
   26  P  2  X   -0.000000  -0.000000  -0.000000  -0.000627   0.045542
   27  P  2  Y   -0.000000  -0.000000  -0.000000   0.045542   0.000627
   28  P  2  Z   -0.000000  -0.000000  -0.464114   0.000000  -0.000000
   29  P  2  S   -0.000000  -0.000000   0.230526   0.000000  -0.000000
   30  P  2  X   -0.000000  -0.000000  -0.000000  -0.002749   0.199694
   31  P  2  Y   -0.000000  -0.000000  -0.000000   0.199694   0.002749
   32  P  2  Z   -0.000000  -0.000000   0.487231   0.000000  -0.000000
   33  P  2 XX   -0.620285  -0.000002  -0.338894   0.000000  -0.000000
   34  P  2 YY    0.620285   0.000002  -0.338894   0.000000  -0.000000
   35  P  2 ZZ   -0.000000  -0.000000   0.621787   0.000000  -0.000000
   36  P  2 XY    0.000003  -0.716243  -0.000000   0.000000  -0.000000
   37  P  2 XZ   -0.000000  -0.000000  -0.000000  -0.010808   0.785001
   38  P  2 YZ   -0.000000  -0.000000  -0.000000   0.785001   0.010808

                     36         37         38
                    1.5649     3.7230     3.8403
                     A          A          A   
    1  P  1  S    0.014193   0.120260   0.119724
    2  P  1  S   -0.109033  -0.487366  -0.459508
    3  P  1  X    0.000000  -0.000000   0.000000
    4  P  1  Y    0.000000  -0.000000   0.000000
    5  P  1  Z    0.146227   0.014545  -0.032210
    6  P  1  S    0.086616   4.977706   5.193161
    7  P  1  X    0.000000  -0.000000   0.000000
    8  P  1  Y    0.000000  -0.000000   0.000000
    9  P  1  Z   -0.669027  -0.000091   0.091851
   10  P  1  S    1.338080  -0.363111  -0.429128
   11  P  1  X    0.000000  -0.000000   0.000000
   12  P  1  Y    0.000000  -0.000000   0.000000
   13  P  1  Z   -0.657624   0.001342  -0.019964
   14  P  1 XX   -0.491051  -2.091989  -2.089617
   15  P  1 YY   -0.491051  -2.091989  -2.089617
   16  P  1 ZZ    0.932220  -2.008928  -2.274666
   17  P  1 XY    0.000000  -0.000000   0.000000
   18  P  1 XZ    0.000000  -0.000000   0.000000
   19  P  1 YZ    0.000000  -0.000000   0.000000
   20  P  2  S   -0.014193   0.120260  -0.119724
   21  P  2  S    0.109033  -0.487366   0.459508
   22  P  2  X    0.000000  -0.000000   0.000000
   23  P  2  Y    0.000000  -0.000000   0.000000
   24  P  2  Z    0.146227  -0.014545  -0.032210
   25  P  2  S   -0.086616   4.977706  -5.193161
   26  P  2  X    0.000000  -0.000000   0.000000
   27  P  2  Y    0.000000  -0.000000   0.000000
   28  P  2  Z   -0.669027   0.000091   0.091851
   29  P  2  S   -1.338080  -0.363111   0.429128
   30  P  2  X    0.000000  -0.000000   0.000000
   31  P  2  Y    0.000000  -0.000000   0.000000
   32  P  2  Z   -0.657624  -0.001342  -0.019964
   33  P  2 XX    0.491051  -2.091989   2.089617
   34  P  2 YY    0.491051  -2.091989   2.089617
   35  P  2 ZZ   -0.932220  -2.008928   2.274666
   36  P  2 XY    0.000000  -0.000000   0.000000
   37  P  2 XZ    0.000000  -0.000000   0.000000
   38  P  2 YZ    0.000000  -0.000000   0.000000

 LZ VALUE ANALYSIS FOR THE MOS
 ----------------------------------------
 MO     1 (    1) HAS LZ(WEIGHT)= 0.00(100.0%) 
 MO     2 (    2) HAS LZ(WEIGHT)= 0.00(100.0%) 
 MO     3 (    3) HAS LZ(WEIGHT)= 0.00(100.0%) 
 MO     4 (    4) HAS LZ(WEIGHT)= 0.00(100.0%) 
 MO     5 (    5) HAS LZ(WEIGHT)= 0.00(100.0%) 
 MO     6 (    6) HAS LZ(WEIGHT)=-1.00( 50.0%)  1.00( 50.0%) 
 MO     7 (    6) HAS LZ(WEIGHT)=-1.00( 50.0%)  1.00( 50.0%) 
 MO     8 (    7) HAS LZ(WEIGHT)=-1.00( 50.0%)  1.00( 50.0%) 
 MO     9 (    7) HAS LZ(WEIGHT)=-1.00( 50.0%)  1.00( 50.0%) 
 MO    10 (    8) HAS LZ(WEIGHT)= 0.00(100.0%) 
 MO    11 (    9) HAS LZ(WEIGHT)= 0.00(100.0%) 
 MO    12 (   10) HAS LZ(WEIGHT)= 0.00(100.0%) 
 MO    13 (   11) HAS LZ(WEIGHT)= 0.00(100.0%) 
 MO    14 (   12) HAS LZ(WEIGHT)=-1.00( 50.0%)  1.00( 50.0%) 
 MO    15 (   12) HAS LZ(WEIGHT)=-1.00( 50.0%)  1.00( 50.0%) 
 MO    16 (   13) HAS LZ(WEIGHT)=-1.00( 50.0%)  1.00( 50.0%) 
 MO    17 (   13) HAS LZ(WEIGHT)=-1.00( 50.0%)  1.00( 50.0%) 
 MO    18 (   14) HAS LZ(WEIGHT)= 0.00(100.0%) 
 MO    19 (   15) HAS LZ(WEIGHT)= 0.00(100.0%) 
 MO    20 (   16) HAS LZ(WEIGHT)= 0.00(100.0%) 
 MO    21 (   17) HAS LZ(WEIGHT)=-1.00( 50.0%)  1.00( 50.0%) 
 MO    22 (   17) HAS LZ(WEIGHT)=-1.00( 50.0%)  1.00( 50.0%) 
 MO    23 (   18) HAS LZ(WEIGHT)= 0.00(100.0%) 
 MO    24 (   19) HAS LZ(WEIGHT)=-1.00( 50.0%)  1.00( 50.0%) 
 MO    25 (   19) HAS LZ(WEIGHT)=-1.00( 50.0%)  1.00( 50.0%) 
 MO    26 (   20) HAS LZ(WEIGHT)= 0.00(100.0%) 
 MO    27 (   21) HAS LZ(WEIGHT)=-1.00( 50.0%)  1.00( 50.0%) 
 MO    28 (   21) HAS LZ(WEIGHT)=-1.00( 50.0%)  1.00( 50.0%) 
 MO    29 (   22) HAS LZ(WEIGHT)=-2.00( 50.0%)  2.00( 50.0%) 
 MO    30 (   22) HAS LZ(WEIGHT)=-2.00( 50.0%)  2.00( 50.0%) 
 MO    31 (   23) HAS LZ(WEIGHT)=-2.00( 50.0%)  2.00( 50.0%) 
 MO    32 (   23) HAS LZ(WEIGHT)=-2.00( 50.0%)  2.00( 50.0%) 
 MO    33 (   24) HAS LZ(WEIGHT)= 0.00(100.0%) 
 MO    34 (   25) HAS LZ(WEIGHT)=-1.00( 50.0%)  1.00( 50.0%) 
 MO    35 (   25) HAS LZ(WEIGHT)=-1.00( 50.0%)  1.00( 50.0%) 
 MO    36 (   26) HAS LZ(WEIGHT)= 0.00(100.0%) 
 MO    37 (   27) HAS LZ(WEIGHT)= 0.00(100.0%) 
 MO    38 (   28) HAS LZ(WEIGHT)= 0.00(100.0%) 

  ----- BETA SET ----- 

          ------------
          EIGENVECTORS
          ------------

                      1          2          3          4          5
                  -79.9756   -79.9756    -7.5255    -7.5249    -5.4176
                     A          A          A          A          A   
    1  P  1  S   -0.704577   0.704592  -0.195272   0.195302  -0.000566
    2  P  1  S   -0.009510   0.009563   0.728892  -0.729187   0.002331
    3  P  1  X    0.000000  -0.000000   0.000000   0.000000   0.000000
    4  P  1  Y    0.000000  -0.000000   0.000000   0.000000   0.000000
    5  P  1  Z    0.000050  -0.000047  -0.001185   0.001150   0.702812
    6  P  1  S    0.015669  -0.014955   0.011420  -0.012411  -0.001695
    7  P  1  X    0.000000  -0.000000   0.000000   0.000000   0.000000
    8  P  1  Y    0.000000  -0.000000   0.000000   0.000000   0.000000
    9  P  1  Z   -0.000291  -0.000055  -0.000645   0.000679   0.013339
   10  P  1  S   -0.003822   0.001984  -0.002254   0.006164  -0.000405
   11  P  1  X    0.000000  -0.000000   0.000000   0.000000   0.000000
   12  P  1  Y    0.000000  -0.000000   0.000000   0.000000   0.000000
   13  P  1  Z    0.000899  -0.000058   0.000296  -0.002128  -0.003253
   14  P  1 XX   -0.005275   0.005228  -0.000710   0.000850   0.000517
   15  P  1 YY   -0.005275   0.005228  -0.000710   0.000850   0.000517
   16  P  1 ZZ   -0.005260   0.005211  -0.000638   0.000806  -0.000230
   17  P  1 XY    0.000000  -0.000000   0.000000   0.000000   0.000000
   18  P  1 XZ    0.000000  -0.000000   0.000000   0.000000   0.000000
   19  P  1 YZ    0.000000  -0.000000   0.000000   0.000000   0.000000
   20  P  2  S    0.704577   0.704592  -0.195272  -0.195302  -0.000566
   21  P  2  S    0.009510   0.009563   0.728892   0.729187   0.002331
   22  P  2  X    0.000000  -0.000000   0.000000   0.000000   0.000000
   23  P  2  Y    0.000000  -0.000000   0.000000   0.000000   0.000000
   24  P  2  Z    0.000050   0.000047   0.001185   0.001150  -0.702812
   25  P  2  S   -0.015669  -0.014955   0.011420   0.012411  -0.001695
   26  P  2  X    0.000000  -0.000000   0.000000   0.000000   0.000000
   27  P  2  Y    0.000000  -0.000000   0.000000   0.000000   0.000000
   28  P  2  Z   -0.000291   0.000055   0.000645   0.000679  -0.013339
   29  P  2  S    0.003822   0.001984  -0.002254  -0.006164  -0.000405
   30  P  2  X    0.000000  -0.000000   0.000000   0.000000   0.000000
   31  P  2  Y    0.000000  -0.000000   0.000000   0.000000   0.000000
   32  P  2  Z    0.000899   0.000058  -0.000296  -0.002128   0.003253
   33  P  2 XX    0.005275   0.005228  -0.000710  -0.000850   0.000517
   34  P  2 YY    0.005275   0.005228  -0.000710  -0.000850   0.000517
   35  P  2 ZZ    0.005260   0.005211  -0.000638  -0.000806  -0.000230
   36  P  2 XY    0.000000  -0.000000   0.000000   0.000000   0.000000
   37  P  2 XZ    0.000000  -0.000000   0.000000   0.000000   0.000000
   38  P  2 YZ    0.000000  -0.000000   0.000000   0.000000   0.000000

                      6          7          8          9         10
                   -5.4168    -5.4168    -5.4166    -5.4166    -5.4158
                     A          A          A          A          A   
    1  P  1  S   -0.000000  -0.000000   0.000000   0.000000  -0.000372
    2  P  1  S   -0.000000  -0.000000   0.000000   0.000000   0.001329
    3  P  1  X    0.545989  -0.443095  -0.673911   0.200631   0.000000
    4  P  1  Y    0.443095   0.545989  -0.200631  -0.673911   0.000000
    5  P  1  Z   -0.000000  -0.000000   0.000000   0.000000   0.703500
    6  P  1  S   -0.000000  -0.000000   0.000000   0.000000  -0.002776
    7  P  1  X    0.010553  -0.008565  -0.013502   0.004020   0.000000
    8  P  1  Y    0.008565   0.010553  -0.004020  -0.013502   0.000000
    9  P  1  Z   -0.000000  -0.000000   0.000000   0.000000   0.014255
   10  P  1  S   -0.000000  -0.000000   0.000000   0.000000   0.002312
   11  P  1  X   -0.002314   0.001878   0.004020  -0.001197   0.000000
   12  P  1  Y   -0.001878  -0.002314   0.001197   0.004020   0.000000
   13  P  1  Z   -0.000000  -0.000000   0.000000   0.000000  -0.003862
   14  P  1 XX   -0.000000  -0.000000   0.000000   0.000000   0.000761
   15  P  1 YY   -0.000000  -0.000000   0.000000   0.000000   0.000761
   16  P  1 ZZ   -0.000000  -0.000000   0.000000   0.000000  -0.000318
   17  P  1 XY   -0.000000  -0.000000   0.000000   0.000000   0.000000
   18  P  1 XZ    0.000084  -0.000068   0.000197  -0.000059   0.000000
   19  P  1 YZ    0.000068   0.000084   0.000059   0.000197   0.000000
   20  P  2  S   -0.000000  -0.000000   0.000000   0.000000   0.000372
   21  P  2  S   -0.000000  -0.000000   0.000000   0.000000  -0.001329
   22  P  2  X    0.545989  -0.443095   0.673911  -0.200631   0.000000
   23  P  2  Y    0.443095   0.545989   0.200631   0.673911   0.000000
   24  P  2  Z   -0.000000  -0.000000   0.000000   0.000000   0.703500
   25  P  2  S   -0.000000  -0.000000   0.000000   0.000000   0.002776
   26  P  2  X    0.010553  -0.008565   0.013502  -0.004020   0.000000
   27  P  2  Y    0.008565   0.010553   0.004020   0.013502   0.000000
   28  P  2  Z   -0.000000  -0.000000   0.000000   0.000000   0.014255
   29  P  2  S   -0.000000  -0.000000   0.000000   0.000000  -0.002312
   30  P  2  X   -0.002314   0.001878  -0.004020   0.001197   0.000000
   31  P  2  Y   -0.001878  -0.002314  -0.001197  -0.004020   0.000000
   32  P  2  Z   -0.000000  -0.000000   0.000000   0.000000  -0.003862
   33  P  2 XX   -0.000000  -0.000000   0.000000   0.000000  -0.000761
   34  P  2 YY   -0.000000  -0.000000   0.000000   0.000000  -0.000761
   35  P  2 ZZ   -0.000000  -0.000000   0.000000   0.000000   0.000318
   36  P  2 XY   -0.000000  -0.000000   0.000000   0.000000   0.000000
   37  P  2 XZ   -0.000084   0.000068   0.000197  -0.000059   0.000000
   38  P  2 YZ   -0.000068  -0.000084   0.000059   0.000197   0.000000

                     11         12         13         14         15
                   -0.9027    -0.6134    -0.4094    -0.3672    -0.3672
                     A          A          A          A          A   
    1  P  1  S    0.048560   0.049415   0.013523   0.000000   0.000000
    2  P  1  S   -0.226204  -0.230882  -0.068753   0.000000   0.000000
    3  P  1  X   -0.000000  -0.000000  -0.000000  -0.155625   0.051694
    4  P  1  Y   -0.000000  -0.000000  -0.000000  -0.051694  -0.155625
    5  P  1  Z    0.070378  -0.064476  -0.187245   0.000000   0.000000
    6  P  1  S    0.440556   0.491156   0.130606   0.000000   0.000000
    7  P  1  X   -0.000000  -0.000000  -0.000000   0.403619  -0.134071
    8  P  1  Y   -0.000000  -0.000000  -0.000000   0.134071   0.403619
    9  P  1  Z   -0.153589   0.167436   0.491334   0.000000   0.000000
   10  P  1  S    0.161559   0.316751   0.236934   0.000000   0.000000
   11  P  1  X   -0.000000  -0.000000  -0.000000   0.251223  -0.083449
   12  P  1  Y   -0.000000  -0.000000  -0.000000   0.083449   0.251223
   13  P  1  Z   -0.004761   0.044669   0.182782   0.000000   0.000000
   14  P  1 XX   -0.013086   0.005330   0.019187   0.000000   0.000000
   15  P  1 YY   -0.013086   0.005330   0.019187   0.000000   0.000000
   16  P  1 ZZ    0.044376  -0.012322  -0.048090   0.000000   0.000000
   17  P  1 XY   -0.000000  -0.000000  -0.000000   0.000000   0.000000
   18  P  1 XZ   -0.000000  -0.000000  -0.000000  -0.058787   0.019527
   19  P  1 YZ   -0.000000  -0.000000  -0.000000  -0.019527  -0.058787
   20  P  2  S    0.048560  -0.049415   0.013523   0.000000   0.000000
   21  P  2  S   -0.226204   0.230882  -0.068753   0.000000   0.000000
   22  P  2  X   -0.000000  -0.000000  -0.000000  -0.155625   0.051694
   23  P  2  Y   -0.000000  -0.000000  -0.000000  -0.051694  -0.155625
   24  P  2  Z   -0.070378  -0.064476   0.187245   0.000000   0.000000
   25  P  2  S    0.440556  -0.491156   0.130606   0.000000   0.000000
   26  P  2  X   -0.000000  -0.000000  -0.000000   0.403619  -0.134071
   27  P  2  Y   -0.000000  -0.000000  -0.000000   0.134071   0.403619
   28  P  2  Z    0.153589   0.167436  -0.491334   0.000000   0.000000
   29  P  2  S    0.161559  -0.316751   0.236934   0.000000   0.000000
   30  P  2  X   -0.000000  -0.000000  -0.000000   0.251223  -0.083449
   31  P  2  Y   -0.000000  -0.000000  -0.000000   0.083449   0.251223
   32  P  2  Z    0.004761   0.044669  -0.182782   0.000000   0.000000
   33  P  2 XX   -0.013086  -0.005330   0.019187   0.000000   0.000000
   34  P  2 YY   -0.013086  -0.005330   0.019187   0.000000   0.000000
   35  P  2 ZZ    0.044376   0.012322  -0.048090   0.000000   0.000000
   36  P  2 XY   -0.000000  -0.000000  -0.000000   0.000000   0.000000
   37  P  2 XZ   -0.000000  -0.000000  -0.000000   0.058787  -0.019527
   38  P  2 YZ   -0.000000  -0.000000  -0.000000   0.019527   0.058787

                     16         17         18         19         20
                    0.0140     0.0140     0.1850     0.3124     0.3921
                     A          A          A          A          A   
    1  P  1  S   -0.000000   0.000000  -0.024772   0.031609  -0.034766
    2  P  1  S   -0.000000   0.000000   0.134423  -0.000308   0.063102
    3  P  1  X    0.029798  -0.154119  -0.000000   0.000000   0.000000
    4  P  1  Y    0.154119   0.029798  -0.000000   0.000000   0.000000
    5  P  1  Z   -0.000000   0.000000  -0.083338   0.054243   0.129833
    6  P  1  S   -0.000000   0.000000  -0.224761   0.854967  -0.756793
    7  P  1  X   -0.076261   0.394430  -0.000000   0.000000   0.000000
    8  P  1  Y   -0.394430  -0.076261  -0.000000   0.000000   0.000000
    9  P  1  Z   -0.000000   0.000000   0.206049  -0.341496  -0.582378
   10  P  1  S   -0.000000   0.000000  -1.858260  -0.696903   0.878275
   11  P  1  X   -0.112328   0.580970  -0.000000   0.000000   0.000000
   12  P  1  Y   -0.580970  -0.112328  -0.000000   0.000000   0.000000
   13  P  1  Z   -0.000000   0.000000   1.705911   0.615558   0.739986
   14  P  1 XX   -0.000000   0.000000  -0.034530  -0.060028  -0.043208
   15  P  1 YY   -0.000000   0.000000  -0.034530  -0.060028  -0.043208
   16  P  1 ZZ   -0.000000   0.000000   0.080052   0.212526   0.050865
   17  P  1 XY   -0.000000   0.000000  -0.000000   0.000000   0.000000
   18  P  1 XZ   -0.007156   0.037013  -0.000000   0.000000   0.000000
   19  P  1 YZ   -0.037013  -0.007156  -0.000000   0.000000   0.000000
   20  P  2  S   -0.000000   0.000000   0.024772   0.031609  -0.034766
   21  P  2  S   -0.000000   0.000000  -0.134423  -0.000308   0.063102
   22  P  2  X   -0.029798   0.154119  -0.000000   0.000000   0.000000
   23  P  2  Y   -0.154119  -0.029798  -0.000000   0.000000   0.000000
   24  P  2  Z   -0.000000   0.000000  -0.083338  -0.054243  -0.129833
   25  P  2  S   -0.000000   0.000000   0.224761   0.854967  -0.756793
   26  P  2  X    0.076261  -0.394430  -0.000000   0.000000   0.000000
   27  P  2  Y    0.394430   0.076261  -0.000000   0.000000   0.000000
   28  P  2  Z   -0.000000   0.000000   0.206049   0.341496   0.582378
   29  P  2  S   -0.000000   0.000000   1.858260  -0.696903   0.878275
   30  P  2  X    0.112328  -0.580970  -0.000000   0.000000   0.000000
   31  P  2  Y    0.580970   0.112328  -0.000000   0.000000   0.000000
   32  P  2  Z   -0.000000   0.000000   1.705911  -0.615558  -0.739986
   33  P  2 XX   -0.000000   0.000000   0.034530  -0.060028  -0.043208
   34  P  2 YY   -0.000000   0.000000   0.034530  -0.060028  -0.043208
   35  P  2 ZZ   -0.000000   0.000000  -0.080052   0.212526   0.050865
   36  P  2 XY   -0.000000   0.000000  -0.000000   0.000000   0.000000
   37  P  2 XZ   -0.007156   0.037013  -0.000000   0.000000   0.000000
   38  P  2 YZ   -0.037013  -0.007156  -0.000000   0.000000   0.000000

                     21         22         23         24         25
                    0.4417     0.4417     0.4779     0.5197     0.5197
                     A          A          A          A          A   
    1  P  1  S   -0.000000  -0.000000  -0.030574   0.000000  -0.000000
    2  P  1  S   -0.000000  -0.000000  -0.018169   0.000000  -0.000000
    3  P  1  X   -0.061746  -0.181457   0.000000  -0.112868   0.190816
    4  P  1  Y   -0.181457   0.061746   0.000000   0.190816   0.112868
    5  P  1  Z   -0.000000  -0.000000   0.167671   0.000000  -0.000000
    6  P  1  S   -0.000000  -0.000000  -0.906609   0.000000  -0.000000
    7  P  1  X    0.271437   0.797684   0.000000   0.485065  -0.820055
    8  P  1  Y    0.797684  -0.271437   0.000000  -0.820055  -0.485065
    9  P  1  Z   -0.000000  -0.000000  -0.698913   0.000000  -0.000000
   10  P  1  S   -0.000000  -0.000000   1.966826   0.000000  -0.000000
   11  P  1  X   -0.243293  -0.714976   0.000000  -0.604837   1.022544
   12  P  1  Y   -0.714976   0.243293   0.000000   1.022544   0.604837
   13  P  1  Z   -0.000000  -0.000000  -0.195720   0.000000  -0.000000
   14  P  1 XX   -0.000000  -0.000000   0.028951   0.000000  -0.000000
   15  P  1 YY   -0.000000  -0.000000   0.028951   0.000000  -0.000000
   16  P  1 ZZ   -0.000000  -0.000000  -0.127293   0.000000  -0.000000
   17  P  1 XY   -0.000000  -0.000000   0.000000   0.000000  -0.000000
   18  P  1 XZ   -0.040942  -0.120318   0.000000  -0.000155   0.000261
   19  P  1 YZ   -0.120318   0.040942   0.000000   0.000261   0.000155
   20  P  2  S   -0.000000  -0.000000   0.030574   0.000000  -0.000000
   21  P  2  S   -0.000000  -0.000000   0.018169   0.000000  -0.000000
   22  P  2  X   -0.061746  -0.181457   0.000000   0.112868  -0.190816
   23  P  2  Y   -0.181457   0.061746   0.000000  -0.190816  -0.112868
   24  P  2  Z   -0.000000  -0.000000   0.167671   0.000000  -0.000000
   25  P  2  S   -0.000000  -0.000000   0.906609   0.000000  -0.000000
   26  P  2  X    0.271437   0.797684   0.000000  -0.485065   0.820055
   27  P  2  Y    0.797684  -0.271437   0.000000   0.820055   0.485065
   28  P  2  Z   -0.000000  -0.000000  -0.698913   0.000000  -0.000000
   29  P  2  S   -0.000000  -0.000000  -1.966826   0.000000  -0.000000
   30  P  2  X   -0.243293  -0.714976   0.000000   0.604837  -1.022544
   31  P  2  Y   -0.714976   0.243293   0.000000  -1.022544  -0.604837
   32  P  2  Z   -0.000000  -0.000000  -0.195720   0.000000  -0.000000
   33  P  2 XX   -0.000000  -0.000000  -0.028951   0.000000  -0.000000
   34  P  2 YY   -0.000000  -0.000000  -0.028951   0.000000  -0.000000
   35  P  2 ZZ   -0.000000  -0.000000   0.127293   0.000000  -0.000000
   36  P  2 XY   -0.000000  -0.000000   0.000000   0.000000  -0.000000
   37  P  2 XZ    0.040942   0.120318   0.000000  -0.000155   0.000261
   38  P  2 YZ    0.120318  -0.040942   0.000000   0.000261   0.000155

                     26         27         28         29         30
                    0.6474     0.7419     0.7419     0.8582     0.8582
                     A          A          A          A          A   
    1  P  1  S   -0.043588  -0.000000   0.000000   0.000000  -0.000000
    2  P  1  S   -0.007099  -0.000000   0.000000   0.000000  -0.000000
    3  P  1  X    0.000000  -0.058808  -0.038353   0.000000  -0.000000
    4  P  1  Y    0.000000  -0.038353   0.058808   0.000000  -0.000000
    5  P  1  Z   -0.181983  -0.000000   0.000000   0.000000  -0.000000
    6  P  1  S   -1.226297  -0.000000   0.000000   0.000000  -0.000000
    7  P  1  X    0.000000   0.223318   0.145644   0.000000  -0.000000
    8  P  1  Y    0.000000   0.145644  -0.223318   0.000000  -0.000000
    9  P  1  Z    0.762689  -0.000000   0.000000   0.000000  -0.000000
   10  P  1  S    3.964765  -0.000000   0.000000   0.000000  -0.000000
   11  P  1  X    0.000000  -0.087626  -0.057148   0.000000  -0.000000
   12  P  1  Y    0.000000  -0.057148   0.087626   0.000000  -0.000000
   13  P  1  Z   -2.375860  -0.000000   0.000000   0.000000  -0.000000
   14  P  1 XX   -0.096495  -0.000000   0.000000   0.604755  -0.000003
   15  P  1 YY   -0.096495  -0.000000   0.000000  -0.604755   0.000003
   16  P  1 ZZ    0.097693  -0.000000   0.000000   0.000000  -0.000000
   17  P  1 XY    0.000000  -0.000000   0.000000   0.000004   0.698311
   18  P  1 XZ    0.000000   0.540061   0.352217   0.000000  -0.000000
   19  P  1 YZ    0.000000   0.352217  -0.540061   0.000000  -0.000000
   20  P  2  S    0.043588  -0.000000   0.000000   0.000000  -0.000000
   21  P  2  S    0.007099  -0.000000   0.000000   0.000000  -0.000000
   22  P  2  X    0.000000  -0.058808  -0.038353   0.000000  -0.000000
   23  P  2  Y    0.000000  -0.038353   0.058808   0.000000  -0.000000
   24  P  2  Z   -0.181983  -0.000000   0.000000   0.000000  -0.000000
   25  P  2  S    1.226297  -0.000000   0.000000   0.000000  -0.000000
   26  P  2  X    0.000000   0.223318   0.145644   0.000000  -0.000000
   27  P  2  Y    0.000000   0.145644  -0.223318   0.000000  -0.000000
   28  P  2  Z    0.762689  -0.000000   0.000000   0.000000  -0.000000
   29  P  2  S   -3.964765  -0.000000   0.000000   0.000000  -0.000000
   30  P  2  X    0.000000  -0.087626  -0.057148   0.000000  -0.000000
   31  P  2  Y    0.000000  -0.057148   0.087626   0.000000  -0.000000
   32  P  2  Z   -2.375860  -0.000000   0.000000   0.000000  -0.000000
   33  P  2 XX    0.096495  -0.000000   0.000000   0.604755  -0.000003
   34  P  2 YY    0.096495  -0.000000   0.000000  -0.604755   0.000003
   35  P  2 ZZ   -0.097693  -0.000000   0.000000   0.000000  -0.000000
   36  P  2 XY    0.000000  -0.000000   0.000000   0.000004   0.698311
   37  P  2 XZ    0.000000  -0.540061  -0.352217   0.000000  -0.000000
   38  P  2 YZ    0.000000  -0.352217   0.540061   0.000000  -0.000000

                     31         32         33         34         35
                    0.9602     0.9602     0.9780     1.1809     1.1809
                     A          A          A          A          A   
    1  P  1  S   -0.000000  -0.000000  -0.016461   0.000000  -0.000000
    2  P  1  S   -0.000000  -0.000000   0.009422   0.000000  -0.000000
    3  P  1  X   -0.000000  -0.000000  -0.000000  -0.000283   0.020519
    4  P  1  Y   -0.000000  -0.000000  -0.000000   0.020519   0.000283
    5  P  1  Z   -0.000000  -0.000000  -0.089958   0.000000  -0.000000
    6  P  1  S   -0.000000  -0.000000  -0.426096   0.000000  -0.000000
    7  P  1  X   -0.000000  -0.000000  -0.000000   0.000627  -0.045542
    8  P  1  Y   -0.000000  -0.000000  -0.000000  -0.045542  -0.000627
    9  P  1  Z   -0.000000  -0.000000   0.464114   0.000000  -0.000000
   10  P  1  S   -0.000000  -0.000000   0.230526   0.000000  -0.000000
   11  P  1  X   -0.000000  -0.000000  -0.000000   0.002749  -0.199694
   12  P  1  Y   -0.000000  -0.000000  -0.000000  -0.199694  -0.002749
   13  P  1  Z   -0.000000  -0.000000  -0.487231   0.000000  -0.000000
   14  P  1 XX    0.620285   0.000002  -0.338894   0.000000  -0.000000
   15  P  1 YY   -0.620285  -0.000002  -0.338894   0.000000  -0.000000
   16  P  1 ZZ   -0.000000  -0.000000   0.621787   0.000000  -0.000000
   17  P  1 XY   -0.000003   0.716243  -0.000000   0.000000  -0.000000
   18  P  1 XZ   -0.000000  -0.000000  -0.000000  -0.010808   0.785001
   19  P  1 YZ   -0.000000  -0.000000  -0.000000   0.785001   0.010808
   20  P  2  S   -0.000000  -0.000000  -0.016461   0.000000  -0.000000
   21  P  2  S   -0.000000  -0.000000   0.009422   0.000000  -0.000000
   22  P  2  X   -0.000000  -0.000000  -0.000000   0.000283  -0.020519
   23  P  2  Y   -0.000000  -0.000000  -0.000000  -0.020519  -0.000283
   24  P  2  Z   -0.000000  -0.000000   0.089958   0.000000  -0.000000
   25  P  2  S   -0.000000  -0.000000  -0.426096   0.000000  -0.000000
   26  P  2  X   -0.000000  -0.000000  -0.000000  -0.000627   0.045542
   27  P  2  Y   -0.000000  -0.000000  -0.000000   0.045542   0.000627
   28  P  2  Z   -0.000000  -0.000000  -0.464114   0.000000  -0.000000
   29  P  2  S   -0.000000  -0.000000   0.230526   0.000000  -0.000000
   30  P  2  X   -0.000000  -0.000000  -0.000000  -0.002749   0.199694
   31  P  2  Y   -0.000000  -0.000000  -0.000000   0.199694   0.002749
   32  P  2  Z   -0.000000  -0.000000   0.487231   0.000000  -0.000000
   33  P  2 XX   -0.620285  -0.000002  -0.338894   0.000000  -0.000000
   34  P  2 YY    0.620285   0.000002  -0.338894   0.000000  -0.000000
   35  P  2 ZZ   -0.000000  -0.000000   0.621787   0.000000  -0.000000
   36  P  2 XY    0.000003  -0.716243  -0.000000   0.000000  -0.000000
   37  P  2 XZ   -0.000000  -0.000000  -0.000000  -0.010808   0.785001
   38  P  2 YZ   -0.000000  -0.000000  -0.000000   0.785001   0.010808

                     36         37         38
                    1.5649     3.7230     3.8403
                     A          A          A   
    1  P  1  S    0.014193   0.120260   0.119724
    2  P  1  S   -0.109033  -0.487366  -0.459508
    3  P  1  X    0.000000  -0.000000   0.000000
    4  P  1  Y    0.000000  -0.000000   0.000000
    5  P  1  Z    0.146227   0.014545  -0.032210
    6  P  1  S    0.086616   4.977706   5.193161
    7  P  1  X    0.000000  -0.000000   0.000000
    8  P  1  Y    0.000000  -0.000000   0.000000
    9  P  1  Z   -0.669027  -0.000091   0.091851
   10  P  1  S    1.338080  -0.363111  -0.429128
   11  P  1  X    0.000000  -0.000000   0.000000
   12  P  1  Y    0.000000  -0.000000   0.000000
   13  P  1  Z   -0.657624   0.001342  -0.019964
   14  P  1 XX   -0.491051  -2.091989  -2.089617
   15  P  1 YY   -0.491051  -2.091989  -2.089617
   16  P  1 ZZ    0.932220  -2.008928  -2.274666
   17  P  1 XY    0.000000  -0.000000   0.000000
   18  P  1 XZ    0.000000  -0.000000   0.000000
   19  P  1 YZ    0.000000  -0.000000   0.000000
   20  P  2  S   -0.014193   0.120260  -0.119724
   21  P  2  S    0.109033  -0.487366   0.459508
   22  P  2  X    0.000000  -0.000000   0.000000
   23  P  2  Y    0.000000  -0.000000   0.000000
   24  P  2  Z    0.146227  -0.014545  -0.032210
   25  P  2  S   -0.086616   4.977706  -5.193161
   26  P  2  X    0.000000  -0.000000   0.000000
   27  P  2  Y    0.000000  -0.000000   0.000000
   28  P  2  Z   -0.669027   0.000091   0.091851
   29  P  2  S   -1.338080  -0.363111   0.429128
   30  P  2  X    0.000000  -0.000000   0.000000
   31  P  2  Y    0.000000  -0.000000   0.000000
   32  P  2  Z   -0.657624  -0.001342  -0.019964
   33  P  2 XX    0.491051  -2.091989   2.089617
   34  P  2 YY    0.491051  -2.091989   2.089617
   35  P  2 ZZ   -0.932220  -2.008928   2.274666
   36  P  2 XY    0.000000  -0.000000   0.000000
   37  P  2 XZ    0.000000  -0.000000   0.000000
   38  P  2 YZ    0.000000  -0.000000   0.000000
 ...... END OF UHF CALCULATION ......
 STEP CPU TIME =     0.01 TOTAL CPU TIME =          0.0 (      0.0 MIN)
 TOTAL WALL CLOCK TIME=          0.0 SECONDS, CPU UTILIZATION IS    97.80%

     ----------------------------------------------------------------
     PROPERTY VALUES FOR THE UHF   SELF-CONSISTENT FIELD WAVEFUNCTION
     ----------------------------------------------------------------

          -----------------
          ENERGY COMPONENTS
          -----------------

         WAVEFUNCTION NORMALIZATION =       1.0000000000

                ONE ELECTRON ENERGY =   -1065.6144964964
                TWO ELECTRON ENERGY =     322.6456106259
           NUCLEAR REPULSION ENERGY =      61.5487110726
                                      ------------------
                       TOTAL ENERGY =    -681.4201747979

 ELECTRON-ELECTRON POTENTIAL ENERGY =     322.6456106259
  NUCLEUS-ELECTRON POTENTIAL ENERGY =   -1746.5627014648
   NUCLEUS-NUCLEUS POTENTIAL ENERGY =      61.5487110726
                                      ------------------
             TOTAL POTENTIAL ENERGY =   -1362.3683797663
               TOTAL KINETIC ENERGY =     680.9482049684
                 VIRIAL RATIO (V/T) =       2.0006931068

  ...... PI ENERGY ANALYSIS ......

 ENERGY ANALYSIS:
            FOCK ENERGY=   -420.3232768082
          BARE H ENERGY=  -1065.6144964964
     ELECTRONIC ENERGY =   -742.9688866523
         KINETIC ENERGY=    680.9482049684
          N-N REPULSION=     61.5487110726
           TOTAL ENERGY=   -681.4201755797
        SIGMA PART(1+2)=   -578.9362466286
               (K,V1,2)=    557.9975467255  -1340.3492781331    203.4154847790
           PI PART(1+2)=   -164.0326400237
               (K,V1,2)=    122.9506582429   -406.2134233317    119.2301250652
  SIGMA SKELETON, ERROR=   -517.3875355560      0.0000000000
             MIXED PART= 0.00000E+00 0.00000E+00 0.00000E+00 0.00000E+00
 ...... END OF PI ENERGY ANALYSIS ......

          ---------------------------------------
          MULLIKEN AND LOWDIN POPULATION ANALYSES
          ---------------------------------------

     ATOMIC MULLIKEN POPULATION IN EACH MOLECULAR ORBITAL
        ALPHA ORBITALS

                      1          2          3          4          5

                  1.000000   1.000000   1.000000   1.000000   1.000000

    1             0.500000   0.500000   0.500000   0.500000   0.500000
    2             0.500000   0.500000   0.500000   0.500000   0.500000

                      6          7          8          9         10

                  1.000000   1.000000   1.000000   1.000000   1.000000

    1             0.500000   0.500000   0.500000   0.500000   0.500000
    2             0.500000   0.500000   0.500000   0.500000   0.500000

                     11         12         13         14         15

                  1.000000   1.000000   1.000000   1.000000   1.000000

    1             0.500000   0.500000   0.500000   0.500000   0.500000
    2             0.500000   0.500000   0.500000   0.500000   0.500000

     ATOMIC MULLIKEN POPULATION IN EACH MOLECULAR ORBITAL
         BETA ORBITALS

                      1          2          3          4          5

                  1.000000   1.000000   1.000000   1.000000   1.000000

    1             0.500000   0.500000   0.500000   0.500000   0.500000
    2             0.500000   0.500000   0.500000   0.500000   0.500000

                      6          7          8          9         10

                  1.000000   1.000000   1.000000   1.000000   1.000000

    1             0.500000   0.500000   0.500000   0.500000   0.500000
    2             0.500000   0.500000   0.500000   0.500000   0.500000

                     11         12         13         14         15

                  1.000000   1.000000   1.000000   1.000000   1.000000

    1             0.500000   0.500000   0.500000   0.500000   0.500000
    2             0.500000   0.500000   0.500000   0.500000   0.500000

     ATOMIC SPIN POPULATION (ALPHA MINUS BETA)
       ATOM         MULL.POP.                    LOW.POP.
    1 P             0.000000                     0.000000
    2 P             0.000000                     0.000000


          ********* ALL ELECTRONS ********

               ----- POPULATIONS IN EACH AO -----
                             MULLIKEN      LOWDIN
              1  P  1  S      1.99892     1.99868
              2  P  1  S      1.99960     1.98829
              3  P  1  X      1.99172     1.95958
              4  P  1  Y      1.99172     1.95958
              5  P  1  Z      1.99389     1.96937
              6  P  1  S      1.23008     0.56119
              7  P  1  X      0.58068     0.54807
              8  P  1  Y      0.58068     0.54807
              9  P  1  Z      0.89674     0.82899
             10  P  1  S      0.63000     0.51212
             11  P  1  X      0.40879     0.47274
             12  P  1  Y      0.40879     0.47274
             13  P  1  Z      0.21140     0.41792
             14  P  1 XX     -0.00144     0.22776
             15  P  1 YY     -0.00144     0.22776
             16  P  1 ZZ      0.04224     0.26793
             17  P  1 XY      0.00000     0.00000
             18  P  1 XZ      0.01881     0.01960
             19  P  1 YZ      0.01881     0.01960
             20  P  2  S      1.99892     1.99868
             21  P  2  S      1.99960     1.98829
             22  P  2  X      1.99172     1.95958
             23  P  2  Y      1.99172     1.95958
             24  P  2  Z      1.99389     1.96937
             25  P  2  S      1.23008     0.56119
             26  P  2  X      0.58068     0.54807
             27  P  2  Y      0.58068     0.54807
             28  P  2  Z      0.89674     0.82899
             29  P  2  S      0.63000     0.51212
             30  P  2  X      0.40879     0.47274
             31  P  2  Y      0.40879     0.47274
             32  P  2  Z      0.21140     0.41792
             33  P  2 XX     -0.00144     0.22776
             34  P  2 YY     -0.00144     0.22776
             35  P  2 ZZ      0.04224     0.26793
             36  P  2 XY      0.00000     0.00000
             37  P  2 XZ      0.01881     0.01960
             38  P  2 YZ      0.01881     0.01960

          ----- MULLIKEN ATOMIC OVERLAP POPULATIONS -----
          (OFF-DIAGONAL ELEMENTS NEED TO BE MULTIPLIED BY 2)

             1           2

    1   14.3518643
    2    0.6481357  14.3518643

          TOTAL MULLIKEN AND LOWDIN ATOMIC POPULATIONS
       ATOM         MULL.POP.    CHARGE          LOW.POP.     CHARGE
    1 P            15.000000   -0.000000        15.000000   -0.000000
    2 P            15.000000   -0.000000        15.000000   -0.000000

          -------------------------------
          BOND ORDER AND VALENCE ANALYSIS     BOND ORDER THRESHOLD=0.050
          -------------------------------

                   BOND                       BOND                       BOND
  ATOM PAIR DIST  ORDER      ATOM PAIR DIST  ORDER      ATOM PAIR DIST  ORDER
    1   2  1.934  2.888

                       TOTAL       BONDED        FREE
      ATOM            VALENCE     VALENCE     VALENCE
    1 P                 2.888       2.888      -0.000
    2 P                 2.888       2.888      -0.000

          -----------------------------------------
          ATOMIC SPIN DENSITY AT THE NUCLEUS (A.U.)
          -----------------------------------------
                            SPIN DENS    ALPHA DENS     BETA DENS
    1  P           15.0     0.0000000    1025.95298    1025.95298
    2  P           15.0     0.0000000    1025.95298    1025.95298

          ---------------------
          ELECTROSTATIC MOMENTS
          ---------------------

 POINT   1           X           Y           Z (BOHR)    CHARGE
                 0.000000    0.000000   -0.000000       -0.00 (A.U.)
         DX          DY          DZ         /D/  (DEBYE)
     0.000000    0.000000    0.000000    0.000000
 ...... END OF PROPERTY EVALUATION ......
 STEP CPU TIME =     0.00 TOTAL CPU TIME =          0.0 (      0.0 MIN)
 TOTAL WALL CLOCK TIME=          0.0 SECONDS, CPU UTILIZATION IS    97.86%

 BEGINNING ONE ELECTRON GRADIENT...
 ..... END OF 1-ELECTRON GRADIENT ......
 STEP CPU TIME =     0.00 TOTAL CPU TIME =          0.0 (      0.0 MIN)
 TOTAL WALL CLOCK TIME=          0.0 SECONDS, CPU UTILIZATION IS    97.87%

          ----------------------
          GRADIENT OF THE ENERGY
          ----------------------

 THE MINIMUM MEMORY REQUIRED FOR THIS RUN IS      79013 WORDS.
 USING     993563 WORDS FOR 2E- DERIVATIVE INTEGRAL CONTRIBUTIONS.
 THE COARSE/FINE SCHWARZ SCREENINGS SKIPPED            0/           0 BLOCKS.
 THE NUMBER OF GRADIENT INTEGRAL BLOCKS COMPUTED WAS      1270
 ...... END OF 2-ELECTRON GRADIENT ......
 STEP CPU TIME =     0.05 TOTAL CPU TIME =          0.1 (      0.0 MIN)
 TOTAL WALL CLOCK TIME=          0.1 SECONDS, CPU UTILIZATION IS    99.17%

          NSERCH=  0     ENERGY=    -681.4201748

                                 -----------------------
                                 GRADIENT (HARTREE/BOHR)
                                 -----------------------
        ATOM     ZNUC       DE/DX         DE/DY         DE/DZ
 --------------------------------------------------------------
    1  P           15.0     0.0000000     0.0000000     0.0582582
    2  P           15.0     0.0000000     0.0000000    -0.0582582

          MAXIMUM GRADIENT = 0.0582582    RMS GRADIENT = 0.0336354

 NSERCH:   0  E=     -681.4201747979  GRAD. MAX=  0.0582582  R.M.S.=  0.0336354

          FORCE CONSTANT MATRIX NOT UPDATED --- TAKING FIRST STEP
          MIN SEARCH, CORRECT HESSIAN, TRYING PURE NR STEP
               NR STEP HAS LENGTH         =   0.068273
          RADIUS OF STEP TAKEN=   0.06827  CURRENT TRUST RADIUS=   0.30000

 BEGINNING GEOMETRY SEARCH POINT NSERCH=   1 ...

 COORDINATES OF ALL ATOMS ARE (ANGS)
   ATOM   CHARGE       X              Y              Z
 ------------------------------------------------------------
 P          15.0   0.0000000000   0.0000000000   0.9416942650
 P          15.0   0.0000000000   0.0000000000  -0.9416942650

          INTERNUCLEAR DISTANCES (ANGS.)
          ------------------------------

                1 P          2 P     

   1 P       0.0000000    1.8833885 *
   2 P       1.8833885 *  0.0000000  

  * ... LESS THAN  3.000

 ...... END OF ONE-ELECTRON INTEGRALS ......
 STEP CPU TIME =     0.00 TOTAL CPU TIME =          0.1 (      0.0 MIN)
 TOTAL WALL CLOCK TIME=          0.1 SECONDS, CPU UTILIZATION IS    99.17%
[...]
    9  P  1  Z    0.000000   0.000000   0.000000   0.000000  -0.014455
   10  P  1  S    0.000000   0.000000   0.000000   0.000000  -0.002417
   11  P  1  X   -0.002909  -0.000823   0.003734  -0.002180   0.000000
   12  P  1  Y    0.000823  -0.002909  -0.002180  -0.003734   0.000000
   13  P  1  Z    0.000000   0.000000   0.000000   0.000000   0.003878
   14  P  1 XX    0.000000   0.000000   0.000000   0.000000  -0.000758
   15  P  1 YY    0.000000   0.000000   0.000000   0.000000  -0.000758
   16  P  1 ZZ    0.000000   0.000000   0.000000   0.000000   0.000261
   17  P  1 XY    0.000000   0.000000   0.000000   0.000000   0.000000
   18  P  1 XZ    0.000071   0.000020   0.000216  -0.000126   0.000000
   19  P  1 YZ   -0.000020   0.000071  -0.000126  -0.000216   0.000000
   20  P  2  S    0.000000   0.000000   0.000000   0.000000  -0.000327
   21  P  2  S    0.000000   0.000000   0.000000   0.000000   0.001089
   22  P  2  X    0.676555   0.191376   0.607193  -0.354514   0.000000
   23  P  2  Y   -0.191376   0.676555  -0.354514  -0.607193   0.000000
   24  P  2  Z    0.000000   0.000000   0.000000   0.000000  -0.703584
   25  P  2  S    0.000000   0.000000   0.000000   0.000000  -0.002997
   26  P  2  X    0.013213   0.003737   0.012336  -0.007203   0.000000
   27  P  2  Y   -0.003737   0.013213  -0.007203  -0.012336   0.000000
   28  P  2  Z    0.000000   0.000000   0.000000   0.000000  -0.014455
   29  P  2  S    0.000000   0.000000   0.000000   0.000000   0.002417
   30  P  2  X   -0.002909  -0.000823  -0.003734   0.002180   0.000000
   31  P  2  Y    0.000823  -0.002909   0.002180   0.003734   0.000000
   32  P  2  Z    0.000000   0.000000   0.000000   0.000000   0.003878
   33  P  2 XX    0.000000   0.000000   0.000000   0.000000   0.000758
   34  P  2 YY    0.000000   0.000000   0.000000   0.000000   0.000758
   35  P  2 ZZ    0.000000   0.000000   0.000000   0.000000  -0.000261
   36  P  2 XY    0.000000   0.000000   0.000000   0.000000   0.000000
   37  P  2 XZ   -0.000071  -0.000020   0.000216  -0.000126   0.000000
   38  P  2 YZ    0.000020  -0.000071  -0.000126  -0.000216   0.000000

                     11         12         13         14         15
                   -0.9194    -0.6036    -0.4096    -0.3775    -0.3775
                     A          A          A          A          A   
    1  P  1  S    0.049003  -0.048804   0.013182   0.000000   0.000000
    2  P  1  S   -0.228762   0.228515  -0.067469   0.000000   0.000000
    3  P  1  X    0.000000   0.000000   0.000000  -0.020787  -0.164697
    4  P  1  Y    0.000000   0.000000   0.000000   0.164697  -0.020787
    5  P  1  Z    0.077251   0.068775  -0.189713   0.000000   0.000000
    6  P  1  S    0.439823  -0.483004   0.123521   0.000000   0.000000
    7  P  1  X    0.000000   0.000000   0.000000   0.053820   0.426430
    8  P  1  Y    0.000000   0.000000   0.000000  -0.426430   0.053820
    9  P  1  Z   -0.163009  -0.178067   0.491958   0.000000   0.000000
   10  P  1  S    0.151508  -0.323739   0.252228   0.000000   0.000000
   11  P  1  X    0.000000   0.000000   0.000000   0.031662   0.250864
   12  P  1  Y    0.000000   0.000000   0.000000  -0.250864   0.031662
   13  P  1  Z   -0.001778  -0.047785   0.179148   0.000000   0.000000
   14  P  1 XX   -0.014428  -0.006070   0.020644   0.000000   0.000000
   15  P  1 YY   -0.014428  -0.006070   0.020644   0.000000   0.000000
   16  P  1 ZZ    0.045733   0.012521  -0.045538   0.000000   0.000000
   17  P  1 XY    0.000000   0.000000   0.000000   0.000000   0.000000
   18  P  1 XZ    0.000000   0.000000   0.000000  -0.008435  -0.066834
   19  P  1 YZ    0.000000   0.000000   0.000000   0.066834  -0.008435
   20  P  2  S    0.049003   0.048804   0.013182   0.000000   0.000000
   21  P  2  S   -0.228762  -0.228515  -0.067469   0.000000   0.000000
   22  P  2  X    0.000000   0.000000   0.000000  -0.020787  -0.164697
   23  P  2  Y    0.000000   0.000000   0.000000   0.164697  -0.020787
   24  P  2  Z   -0.077251   0.068775   0.189713   0.000000   0.000000
   25  P  2  S    0.439823   0.483004   0.123521   0.000000   0.000000
   26  P  2  X    0.000000   0.000000   0.000000   0.053820   0.426430
   27  P  2  Y    0.000000   0.000000   0.000000  -0.426430   0.053820
   28  P  2  Z    0.163009  -0.178067  -0.491958   0.000000   0.000000
   29  P  2  S    0.151508   0.323739   0.252228   0.000000   0.000000
   30  P  2  X    0.000000   0.000000   0.000000   0.031662   0.250864
   31  P  2  Y    0.000000   0.000000   0.000000  -0.250864   0.031662
   32  P  2  Z    0.001778  -0.047785  -0.179148   0.000000   0.000000
   33  P  2 XX   -0.014428   0.006070   0.020644   0.000000   0.000000
   34  P  2 YY   -0.014428   0.006070   0.020644   0.000000   0.000000
   35  P  2 ZZ    0.045733  -0.012521  -0.045538   0.000000   0.000000
   36  P  2 XY    0.000000   0.000000   0.000000   0.000000   0.000000
   37  P  2 XZ    0.000000   0.000000   0.000000   0.008435   0.066834
   38  P  2 YZ    0.000000   0.000000   0.000000  -0.066834   0.008435

                     16         17         18         19         20
                    0.0246     0.0246     0.1993     0.3031     0.3946
                     A          A          A          A          A   
    1  P  1  S    0.000000   0.000000   0.024908  -0.030403   0.035522
    2  P  1  S    0.000000   0.000000  -0.136325  -0.003302  -0.061791
    3  P  1  X   -0.016782  -0.153924   0.000000   0.000000   0.000000
    4  P  1  Y   -0.153924   0.016782   0.000000   0.000000   0.000000
    5  P  1  Z    0.000000   0.000000   0.069831  -0.054959  -0.130623
    6  P  1  S    0.000000   0.000000   0.224015  -0.839123   0.778589
    7  P  1  X    0.042908   0.393546   0.000000   0.000000   0.000000
    8  P  1  Y    0.393546  -0.042908   0.000000   0.000000   0.000000
    9  P  1  Z    0.000000   0.000000  -0.168151   0.334215   0.572222
   10  P  1  S    0.000000   0.000000   2.206621   0.656786  -0.899404
   11  P  1  X    0.067349   0.617718   0.000000   0.000000   0.000000
   12  P  1  Y    0.617718  -0.067349   0.000000   0.000000   0.000000
   13  P  1  Z    0.000000   0.000000  -1.880742  -0.658610  -0.728320
   14  P  1 XX    0.000000   0.000000   0.034955   0.061485   0.039740
   15  P  1 YY    0.000000   0.000000   0.034955   0.061485   0.039740
   16  P  1 ZZ    0.000000   0.000000  -0.083288  -0.194979  -0.033572
   17  P  1 XY    0.000000   0.000000   0.000000   0.000000   0.000000
   18  P  1 XZ    0.004349   0.039891   0.000000   0.000000   0.000000
   19  P  1 YZ    0.039891  -0.004349   0.000000   0.000000   0.000000
   20  P  2  S    0.000000   0.000000  -0.024908  -0.030403   0.035522
   21  P  2  S    0.000000   0.000000   0.136325  -0.003302  -0.061791
   22  P  2  X    0.016782   0.153924   0.000000   0.000000   0.000000
   23  P  2  Y    0.153924  -0.016782   0.000000   0.000000   0.000000
   24  P  2  Z    0.000000   0.000000   0.069831   0.054959   0.130623
   25  P  2  S    0.000000   0.000000  -0.224015  -0.839123   0.778589
   26  P  2  X   -0.042908  -0.393546   0.000000   0.000000   0.000000
   27  P  2  Y   -0.393546   0.042908   0.000000   0.000000   0.000000
   28  P  2  Z    0.000000   0.000000  -0.168151  -0.334215  -0.572222
   29  P  2  S    0.000000   0.000000  -2.206621   0.656786  -0.899404
   30  P  2  X   -0.067349  -0.617718   0.000000   0.000000   0.000000
   31  P  2  Y   -0.617718   0.067349   0.000000   0.000000   0.000000
   32  P  2  Z    0.000000   0.000000  -1.880742   0.658610   0.728320
   33  P  2 XX    0.000000   0.000000  -0.034955   0.061485   0.039740
   34  P  2 YY    0.000000   0.000000  -0.034955   0.061485   0.039740
   35  P  2 ZZ    0.000000   0.000000   0.083288  -0.194979  -0.033572
   36  P  2 XY    0.000000   0.000000   0.000000   0.000000   0.000000
   37  P  2 XZ    0.004349   0.039891   0.000000   0.000000   0.000000
   38  P  2 YZ    0.039891  -0.004349   0.000000   0.000000   0.000000

                     21         22         23         24         25
                    0.4317     0.4317     0.4881     0.5265     0.5265
                     A          A          A          A          A   
    1  P  1  S    0.000000   0.000000   0.030985   0.000000   0.000000
    2  P  1  S    0.000000   0.000000   0.022639   0.000000   0.000000
    3  P  1  X   -0.173181   0.064169   0.000000  -0.065920  -0.213985
    4  P  1  Y   -0.064169  -0.173181   0.000000  -0.213985   0.065920
    5  P  1  Z    0.000000   0.000000  -0.163388   0.000000   0.000000
    6  P  1  S    0.000000   0.000000   0.930407   0.000000   0.000000
    7  P  1  X    0.765656  -0.283702   0.000000   0.282940   0.918456
    8  P  1  Y    0.283702   0.765656   0.000000   0.918456  -0.282940
    9  P  1  Z    0.000000   0.000000   0.690846   0.000000   0.000000
   10  P  1  S    0.000000   0.000000  -2.325274   0.000000   0.000000
   11  P  1  X   -0.701584   0.259960   0.000000  -0.356262  -1.156468
   12  P  1  Y   -0.259960  -0.701584   0.000000  -1.156468   0.356262
   13  P  1  Z    0.000000   0.000000   0.395755   0.000000   0.000000
   14  P  1 XX    0.000000   0.000000  -0.029013   0.000000   0.000000
   15  P  1 YY    0.000000   0.000000  -0.029013   0.000000   0.000000
   16  P  1 ZZ    0.000000   0.000000   0.134539   0.000000   0.000000
   17  P  1 XY    0.000000   0.000000   0.000000   0.000000   0.000000
   18  P  1 XZ   -0.140484   0.052054   0.000000   0.002926   0.009498
   19  P  1 YZ   -0.052054  -0.140484   0.000000   0.009498  -0.002926
   20  P  2  S    0.000000   0.000000  -0.030985   0.000000   0.000000
   21  P  2  S    0.000000   0.000000  -0.022639   0.000000   0.000000
   22  P  2  X   -0.173181   0.064169   0.000000   0.065920   0.213985
   23  P  2  Y   -0.064169  -0.173181   0.000000   0.213985  -0.065920
   24  P  2  Z    0.000000   0.000000  -0.163388   0.000000   0.000000
   25  P  2  S    0.000000   0.000000  -0.930407   0.000000   0.000000
   26  P  2  X    0.765656  -0.283702   0.000000  -0.282940  -0.918456
   27  P  2  Y    0.283702   0.765656   0.000000  -0.918456   0.282940
   28  P  2  Z    0.000000   0.000000   0.690846   0.000000   0.000000
   29  P  2  S    0.000000   0.000000   2.325274   0.000000   0.000000
   30  P  2  X   -0.701584   0.259960   0.000000   0.356262   1.156468
   31  P  2  Y   -0.259960  -0.701584   0.000000   1.156468  -0.356262
   32  P  2  Z    0.000000   0.000000   0.395755   0.000000   0.000000
   33  P  2 XX    0.000000   0.000000   0.029013   0.000000   0.000000
   34  P  2 YY    0.000000   0.000000   0.029013   0.000000   0.000000
   35  P  2 ZZ    0.000000   0.000000  -0.134539   0.000000   0.000000
   36  P  2 XY    0.000000   0.000000   0.000000   0.000000   0.000000
   37  P  2 XZ    0.140484  -0.052054   0.000000   0.002926   0.009498
   38  P  2 YZ    0.052054   0.140484   0.000000   0.009498  -0.002926

     ----------------------------------------------------------------
     PROPERTY VALUES FOR THE UHF   SELF-CONSISTENT FIELD WAVEFUNCTION
     ----------------------------------------------------------------

          -----------------
          ENERGY COMPONENTS
          -----------------

         WAVEFUNCTION NORMALIZATION =       1.0000000000

                ONE ELECTRON ENERGY =   -1070.7172462827
                TWO ELECTRON ENERGY =     325.2608648501
           NUCLEAR REPULSION ENERGY =      64.0318467840
                                      ------------------
                       TOTAL ENERGY =    -681.4245346486

 ELECTRON-ELECTRON POTENTIAL ENERGY =     325.2608648501
  NUCLEUS-ELECTRON POTENTIAL ENERGY =   -1751.8931680734
   NUCLEUS-NUCLEUS POTENTIAL ENERGY =      64.0318467840
                                      ------------------
             TOTAL POTENTIAL ENERGY =   -1362.6004564393
               TOTAL KINETIC ENERGY =     681.1759217907
                 VIRIAL RATIO (V/T) =       2.0003649760

  ...... PI ENERGY ANALYSIS ......

 ENERGY ANALYSIS:
            FOCK ENERGY=   -420.1955155302
          BARE H ENERGY=  -1070.7172462827
     ELECTRONIC ENERGY =   -745.4563809065
         KINETIC ENERGY=    681.1759217907
          N-N REPULSION=     64.0318467840
           TOTAL ENERGY=   -681.4245341225
        SIGMA PART(1+2)=   -580.3394342797
               (K,V1,2)=    558.1276919964  -1343.3852052380    204.9180789619
           PI PART(1+2)=   -165.1169466268
               (K,V1,2)=    123.0482297943   -408.5079628355    120.3427864143
  SIGMA SKELETON, ERROR=   -516.3075874956      0.0000000000
             MIXED PART= 0.00000E+00 0.00000E+00 0.00000E+00 0.00000E+00
 ...... END OF PI ENERGY ANALYSIS ......

          ---------------------------------------
          MULLIKEN AND LOWDIN POPULATION ANALYSES
          ---------------------------------------

     ATOMIC MULLIKEN POPULATION IN EACH MOLECULAR ORBITAL
        ALPHA ORBITALS

                      1          2          3          4          5

                  1.000000   1.000000   1.000000   1.000000   1.000000

    1             0.500000   0.500000   0.500000   0.500000   0.500000
    2             0.500000   0.500000   0.500000   0.500000   0.500000

                      6          7          8          9         10

                  1.000000   1.000000   1.000000   1.000000   1.000000

    1             0.500000   0.500000   0.500000   0.500000   0.500000
    2             0.500000   0.500000   0.500000   0.500000   0.500000

                     11         12         13         14         15

                  1.000000   1.000000   1.000000   1.000000   1.000000

    1             0.500000   0.500000   0.500000   0.500000   0.500000
    2             0.500000   0.500000   0.500000   0.500000   0.500000

     ATOMIC MULLIKEN POPULATION IN EACH MOLECULAR ORBITAL
         BETA ORBITALS

                      1          2          3          4          5

                  1.000000   1.000000   1.000000   1.000000   1.000000

    1             0.500000   0.500000   0.500000   0.500000   0.500000
    2             0.500000   0.500000   0.500000   0.500000   0.500000

                      6          7          8          9         10

                  1.000000   1.000000   1.000000   1.000000   1.000000

    1             0.500000   0.500000   0.500000   0.500000   0.500000
    2             0.500000   0.500000   0.500000   0.500000   0.500000

                     11         12         13         14         15

                  1.000000   1.000000   1.000000   1.000000   1.000000

    1             0.500000   0.500000   0.500000   0.500000   0.500000
    2             0.500000   0.500000   0.500000   0.500000   0.500000

     ATOMIC SPIN POPULATION (ALPHA MINUS BETA)
       ATOM         MULL.POP.                    LOW.POP.
    1 P             0.000000                     0.000000
    2 P             0.000000                     0.000000


          ********* ALL ELECTRONS ********

               ----- POPULATIONS IN EACH AO -----
                             MULLIKEN      LOWDIN
              1  P  1  S      1.99892     1.99866
              2  P  1  S      1.99949     1.98838
              3  P  1  X      1.99170     1.95989
              4  P  1  Y      1.99170     1.95989
              5  P  1  Z      1.99407     1.97070
              6  P  1  S      1.21536     0.55253
              7  P  1  X      0.59428     0.55670
              8  P  1  Y      0.59428     0.55670
              9  P  1  Z      0.91891     0.85070
             10  P  1  S      0.63256     0.50855
             11  P  1  X      0.39119     0.45942
             12  P  1  Y      0.39119     0.45942
             13  P  1  Z      0.19906     0.41356
             14  P  1 XX     -0.00162     0.22327
             15  P  1 YY     -0.00162     0.22327
             16  P  1 ZZ      0.04488     0.27038
             17  P  1 XY      0.00000     0.00000
             18  P  1 XZ      0.02282     0.02399
             19  P  1 YZ      0.02282     0.02399
             20  P  2  S      1.99892     1.99866
             21  P  2  S      1.99949     1.98838
             22  P  2  X      1.99170     1.95989
             23  P  2  Y      1.99170     1.95989
             24  P  2  Z      1.99407     1.97070
             25  P  2  S      1.21536     0.55253
             26  P  2  X      0.59428     0.55670
             27  P  2  Y      0.59428     0.55670
             28  P  2  Z      0.91891     0.85070
             29  P  2  S      0.63256     0.50855
             30  P  2  X      0.39119     0.45942
             31  P  2  Y      0.39119     0.45942
             32  P  2  Z      0.19906     0.41356
             33  P  2 XX     -0.00162     0.22327
             34  P  2 YY     -0.00162     0.22327
             35  P  2 ZZ      0.04488     0.27038
             36  P  2 XY      0.00000     0.00000
             37  P  2 XZ      0.02282     0.02399
             38  P  2 YZ      0.02282     0.02399

          ----- MULLIKEN ATOMIC OVERLAP POPULATIONS -----
          (OFF-DIAGONAL ELEMENTS NEED TO BE MULTIPLIED BY 2)

             1           2

    1   14.3269679
    2    0.6730321  14.3269679

          TOTAL MULLIKEN AND LOWDIN ATOMIC POPULATIONS
       ATOM         MULL.POP.    CHARGE          LOW.POP.     CHARGE
    1 P            15.000000   -0.000000        15.000000   -0.000000
    2 P            15.000000    0.000000        15.000000    0.000000

          -------------------------------
          BOND ORDER AND VALENCE ANALYSIS     BOND ORDER THRESHOLD=0.050
          -------------------------------

                   BOND                       BOND                       BOND
  ATOM PAIR DIST  ORDER      ATOM PAIR DIST  ORDER      ATOM PAIR DIST  ORDER
    1   2  1.859  2.874

                       TOTAL       BONDED        FREE
      ATOM            VALENCE     VALENCE     VALENCE
    1 P                 2.874       2.874      -0.000
    2 P                 2.874       2.874      -0.000

          -----------------------------------------
          ATOMIC SPIN DENSITY AT THE NUCLEUS (A.U.)
          -----------------------------------------
                            SPIN DENS    ALPHA DENS     BETA DENS
    1  P           15.0     0.0000000    1025.91216    1025.91216
    2  P           15.0     0.0000000    1025.91216    1025.91216

          ---------------------
          ELECTROSTATIC MOMENTS
          ---------------------

 POINT   1           X           Y           Z (BOHR)    CHARGE
                 0.000000   -0.000000   -0.000000        0.00 (A.U.)
         DX          DY          DZ         /D/  (DEBYE)
    -0.000000   -0.000000   -0.000000    0.000000
 ...... END OF PROPERTY EVALUATION ......
 STEP CPU TIME =     0.00 TOTAL CPU TIME =          0.3 (      0.0 MIN)
 TOTAL WALL CLOCK TIME=          0.3 SECONDS, CPU UTILIZATION IS    99.23%
  $VIB   
          IVIB=   0 IATOM=   0 ICOORD=   0 E=     -681.4245346486
  0.000000000E+00 0.000000000E+00 1.965503596E-06 0.000000000E+00 0.000000000E+00
 -1.965503620E-06
 -8.136728810E-36-4.868066140E-23-3.612066735E-14
 ......END OF GEOMETRY SEARCH......
 STEP CPU TIME =     0.00 TOTAL CPU TIME =          0.3 (      0.0 MIN)
 TOTAL WALL CLOCK TIME=          0.3 SECONDS, CPU UTILIZATION IS    99.23%
               993587  WORDS OF DYNAMIC MEMORY USED
 EXECUTION OF GAMESS TERMINATED NORMALLY 19:56:14 20-OCT-2025    
----- accounting info -----
Files used on the parent node Macbooks-MacBook-Pro.local were:
-rw-r--r--  1 macbookpro  staff      241 Oct 20 19:56 /Users/macbookpro/local/gamess/scr/p2_q0m1_uhf_631g_star.F05
-rw-r--r--  1 macbookpro  staff   900080 Oct 20 19:56 /Users/macbookpro/local/gamess/scr/p2_q0m1_uhf_631g_star.F08
-rw-r--r--  1 macbookpro  staff  2094080 Oct 20 19:56 /Users/macbookpro/local/gamess/scr/p2_q0m1_uhf_631g_star.F10
-rw-r--r--  1 macbookpro  staff   174711 Oct 20 19:56 /Users/macbookpro/local/gamess/scr/p2_q0m1_uhf_631g_star.dat
Mon Oct 20 19:56:14 +07 2025
0.375u 0.056s 0:00.43 97.6%	0+0k 0+0io 46pf+0w
