1 : s2_q0m3_uhf_631g_star.inp
----- GAMESS execution script 'rungms' -----
This job is running on host Macbooks-MacBook-Pro.local
under operating system Darwin at Mon Oct 20 19:56:14 +07 2025
Available scratch disk space (Kbyte units) at beginning of the job is
Filesystem   1024-blocks      Used Available Capacity iused      ifree %iused  Mounted on
/dev/disk3s5   482797652 122179736 339913476    27% 1896468 3399134760    0%   /System/Volumes/Data
GAMESS temporary binary files will be written to /Users/macbookpro/local/gamess/scr
GAMESS supplementary output files will be written to /Users/macbookpro/local/gamess/scr
Copying input file /Users/macbookpro/sq2_data/s2_q0m3_uhf_631g_star.inp to your run's scratch directory...
          *******************************************************
          *                                                     *
          *          GAMESS VERSION = 30 JUN 2023 (R1)          *
          *                                                     *
          *              doi.org/10.1063/5.0005188              *
          *                                                     *
          **************** 64 BIT LINUX VERSION *****************

  GAMESS HAS BEEN MADE POSSIBLE WITH IMPORTANT CONTRIBUTIONS FROM
  THE FOLLOWING INDIVIDUALS (IN ALPHABETICAL ORDER):

     IVANA ADAMOVIC, CHRISTINE AIKENS, TOMOKO AKAMA,
     MELISA ALKAN, YURI ALEXEEV, YURIKO AOKI, POOJA ARORA,
     TOSHIO ASADA, ANDREY ASADCHEV, KIM K. BALDRIDGE,
     PRADIPTA BANDYOPADHYAY, TAYLOR A. BARNES, MARIA BARYSZ,
     ROB BELL, JONATHAN BENTZ, COLLEEN BERTONI,
     JERRY A. BOATZ, BRETT BODE, KURT BRORSEN, KURT R. BRORSEN,
     LAIMUTIS BYTAUTAS, CALEB CARLIN, LAURA CARRINGTON,
     GALINA CHABAN, BENOIT CHAMPAGNE, WEI CHEN, MAHITO CHIBA,
     DAN CHIPMAN, CHEOL HO CHOI, TANNER CULPITT,
     DIPAYAN DATTA, PAUL DAY, ALBERT DEFUSCO,
     NUWAN DESILVA, J. EMILIANO DEUSTUA,
     TIM DUDLEY, MICHEL DUPUIS, STEVEN T. ELBERT,
     DMITRI FEDOROV, KATHERINE FERRERAS, MICHAEL FILATOV,
     ALEX FINDLATER,GRAHAM FLETCHER, MARK FREITAG,
     CHRISTIAN FRIEDL, DAVID GARMER, 
     IGOR S. GERASIMOV, KURT GLAESEMANN,
     MARK S. GORDON, JEFFREY R. GOUR, FENG LONG GU,
     EMILIE B. GUIDEZ, ANASTASIA GUNINA, SHARON HAMMES-SCHIFFER,
     MASATAKE HARUTA, KIMIHIKO HIRAO, YASUHIRO IKABATA,
     TZVETELIN IORDANOV, STEPHAN IRLE, KAZUYA ISHIMURA,
     JOE IVANIC, FRANK JENSEN, JAN H. JENSEN, VISVALDAS KAIRYS,
     MUNEAKI KAMIYA, MICHIO KATOUDA, NAOAKI KAWAKAMI, DAN KEMP,
     BERNARD KIRTMAN, KAZUO KITAURA, MARIUSZ KLOBUKOWSKI,
     MASATO KOBAYASHI, KONSTANTIN KOMAROV, PRAKASHAN KORAMBATH,
     JACEK KORCHOWIEC, SHIRO KOSEKI, KAROL KOWALSKI,
     JIMMY KROMANN, STANISLAW A. KUCHARSKI, HENRY KURTZ,
     SAROM SOK LEANG, SEUNGHOON LEE, HUI LI, SHUHUA LI, WEI LI,
     JESSE J. LUTZ, ALEKSANDR O. LYKHIN,
     ILIAS MAGOULAS, MARCIN MAKOWSKI,
     JOANI MATO, NIKITA MATSUNAGA, BENEDETTA MENNUCCI,
     GRANT MERRILL, NORIYUKI MINEZAWA, VLADIMIR MIRONOV,
     EISAKU MIYOSHI, JOHN A. MONTGOMERY JR., HIROTOSHI MORI,
     JONATHAN MULLIN, MONIKA MUSIAL, SHIGERU NAGASE,
     TAKESHI NAGATA, HIROMI NAKAI, TAKAHITO NAKAJIMA,
     YUYA NAKAJIMA, HARUYUKI NAKANO, HIROYA NAKATA, SEAN NEDD,
     HEATHER NETZLOFF, KIET A. NGUYEN, YOSHIO NISHIMOTO,
     BOSILJKA NJEGIC, RYAN OLSON, MIKE PAK, ROBERTO PEVERATI,
     BUU PHAM, PIOTR PIECUCH, ANNA POMOGAEVA, DAVID POOLE,
     SPENCER PRUITT, OLIVIER QUINET, LUKE ROSKOP,
     KLAUS RUEDENBERG, ANDREW SAND, TOSAPORN SATTASATHUCHANA,
     NOZOMI SAWADA, MICHAEL W. SCHMIDT, PATRICK E. SCHNEIDER,
     JUNJI SEINO, PRACHI SHARMA, JUN SHEN, JIM SHOEMAKER,
     YINAN SHU, DEJUN SI, JONATHAN SKONE, LYUDMILA SLIPCHENKO,
     TONY SMITH, JIE SONG, MARK SPACKMAN, CASPER STEINMANN,
     WALT STEVENS, PEIFENG SU, SHUJUN SU, CHET SWALINA,
     CHINAMI TAKASHIMA, TETSUYA TAKETSUGU, ZHEN TAO,
     NANDUN THELLAMUREGE, SEIKEN TOKURA, JACOPO TOMASI,
     TSUGUKI TOUMA, TAKAO TSUNEDA, HIROAKI UMEDA,
     JORGE LUIS GALVEZ VALLEJO, YALI WANG, SIMON WEBB,
     AARON WEST, THERESA L. WINDUS, MARTA WLOCH,
     PENG XU, KIYOSHI YAGI, SUSUMU YANAGISAWA, YANG YANG,
     SOOHAENG YOO, TAKESHI YOSHIKAWA, FEDERICO ZAHARIEV,
     TOBY ZENG

  WHO ARE SUPPORTED BY THEIR INSTITUTION/UNIVERSITY/COMPANY/GROUP
  (IN ALPHABETICAL ORDER):

     EP ANALYTICS,
     FACULTES UNIVERSITAIRES NOTRE-DAME DE LA PAIX,
     INSTITUTE FOR MOLECULAR SCIENCE, IOWA STATE UNIVERSITY,
     JACKSON STATE UNIVERSITY, JOHANNES KEPLER UNIVERSITY LINZ,
     KYUNGPOOK NATIONAL UNIVERSITY
     KYUSHU UNIVERSITY, MICHIGAN STATE UNIVERSITY,
     MIE UNIVERSITY, THE MOLECULAR SCIENCES SOFTWARE INSTITUTE,
     MOSCOW STATE UNIVERSITY,
     N. COPERNICUS UNIVERSITY, NAGOYA UNIVERSITY,
     NANJING UNIVERSITY, NAT. INST. OF ADVANCED INDUSTRIAL
     SCIENCE AND TECHNOLOGY, NATIONAL INST. OF STANDARDS AND
     TECHNOLOGY, NESMEYANOV INSTITUTE OF ORGANOELEMENT COMPOUNDS
     OF RUSSIAN ACADEMY OF SCIENCES, OSAKA PREFECTURE UNIVERSITY,
     PENNSYLVANIA STATE UNIVERSITY, TOKYO INSTITUTE OF TECHNOLOGY,
     UNIVERSITY OF AARHUS, UNIVERSITY OF ALBERTA,
     UNIVERSITY OF CALIFORNIA AT SANTA BARBARA,
     UNIVERSITY OF COPENHAGEN, UNIVERSITY OF IOWA,
     UNIVERSITY OF MEMPHIS, UNIVERSITY OF MINNESOTA,
     UNIVERSITY OF NEBRASKA, UNIVERSITY OF NEW ENGLAND,
     UNIVERSITY OF NOTRE DAME, UNIVERSITY OF PISA,
     UNIVERSITY OF SILESIA, UNIVERSITY OF TOKYO,
     UNIVERSITY OF ZURICH, WASEDA UNIVERSITY,
     YALE UNIVERSITY

  GAMESS SOFTWARE MANAGEMENT TEAM FOR THIS RELEASE:
     MARK S. GORDON (TEAM LEAD),
     BRETT BODE (SENIOR ADVISOR),
     GIUSEPPE BARCA,
     COLLEEN BERTONI,
     KRISTOPHER KEIPERT (ADVISOR),
     SAROM S. LEANG (DEVELOPMENT LEAD),
     BUU PHAM,
     JACKSON HAYES (WEBSITE ADMINISTRATOR),
     PENG XU

 EXECUTION OF GAMESS BEGUN 19:56:15 20-OCT-2025    

            ECHO OF THE FIRST FEW INPUT CARDS -
 INPUT CARD> $CONTRL SCFTYP=UHF ICHARG=0 MULT=3                                             
 INPUT CARD> RUNTYP=OPTIMIZE                                                                
 INPUT CARD> $END                                                                           
 INPUT CARD> $BASIS GBASIS=N31 NGAUSS=6 NDFUNC=1 $END                                       
 INPUT CARD> $DATA                                                                          
 INPUT CARD> ... this is comment ...                                                        
 INPUT CARD> C1                                                                             
 INPUT CARD> S    16   0.00000000   0.00000000   0.96084189                                 
 INPUT CARD> S    16   0.00000000   0.00000000  -0.96084189                                 
 INPUT CARD> $END                                                                           
 INPUT CARD>                                                                                
      1000000 WORDS OF MEMORY AVAILABLE

     BASIS OPTIONS
     -------------
     GBASIS=N31          IGAUSS=       6      POLAR=POPN31  
     NDFUNC=       1     NFFUNC=       0     DIFFSP=       F
     NPFUNC=       0      DIFFS=       F     BASNAM=        


     RUN TITLE
     ---------
  ... this is comment ...                                                        

 THE POINT GROUP OF THE MOLECULE IS C1      
 THE ORDER OF THE PRINCIPAL AXIS IS     0

 ATOM      ATOMIC                      COORDINATES (BOHR)
           CHARGE         X                   Y                   Z
 S          16.0     0.0000000000        0.0000000000        1.8157278896
 S          16.0     0.0000000000        0.0000000000       -1.8157278896

          INTERNUCLEAR DISTANCES (ANGS.)
          ------------------------------

                1 S          2 S     

   1 S       0.0000000    1.9216838 *
   2 S       1.9216838 *  0.0000000  

  * ... LESS THAN  3.000


     ATOMIC BASIS SET
     ----------------
 THE CONTRACTED PRIMITIVE FUNCTIONS HAVE BEEN UNNORMALIZED
 THE CONTRACTED BASIS FUNCTIONS ARE NOW NORMALIZED TO UNITY

  SHELL TYPE  PRIMITIVE        EXPONENT          CONTRACTION COEFFICIENT(S)

 S         

      1   S       1         21917.1000000    0.001869240849
      1   S       2          3301.4900000    0.014230306464
      1   S       3           754.1460000    0.069696231659
      1   S       4           212.7110000    0.238487108332
      1   S       5            67.9896000    0.483307219541
      1   S       6            23.0515000    0.338074153569

      2   L       7           423.7350000   -0.002376770499    0.004061009982
      2   L       8           100.7100000   -0.031693006651    0.030681299864
      2   L       9            32.1599000   -0.113317023779    0.130451999421
      2   L      10            11.8079000    0.056090011770    0.327204998547
      2   L      11             4.6311000    0.592255124284    0.452850997989
      2   L      12             1.8702500    0.455006095483    0.256041998863

      3   L      13             2.6158400   -0.250373114159   -0.014510489547
      3   L      14             0.9221670    0.066956763101    0.310262776489
      3   L      15             0.3412870    1.054506269068    0.754482456476

      4   L      16             0.1171670    1.000000000000    1.000000000000

      5   D      17             0.6500000    1.000000000000

 S         

      6   S      18         21917.1000000    0.001869240849
      6   S      19          3301.4900000    0.014230306464
      6   S      20           754.1460000    0.069696231659
      6   S      21           212.7110000    0.238487108332
      6   S      22            67.9896000    0.483307219541
      6   S      23            23.0515000    0.338074153569

      7   L      24           423.7350000   -0.002376770499    0.004061009982
      7   L      25           100.7100000   -0.031693006651    0.030681299864
      7   L      26            32.1599000   -0.113317023779    0.130451999421
      7   L      27            11.8079000    0.056090011770    0.327204998547
      7   L      28             4.6311000    0.592255124284    0.452850997989
      7   L      29             1.8702500    0.455006095483    0.256041998863

      8   L      30             2.6158400   -0.250373114159   -0.014510489547
      8   L      31             0.9221670    0.066956763101    0.310262776489
      8   L      32             0.3412870    1.054506269068    0.754482456476

      9   L      33             0.1171670    1.000000000000    1.000000000000

     10   D      34             0.6500000    1.000000000000

 TOTAL NUMBER OF BASIS SET SHELLS             =   10
 NUMBER OF CARTESIAN GAUSSIAN BASIS FUNCTIONS =   38
 NUMBER OF ELECTRONS                          =   32
 CHARGE OF MOLECULE                           =    0
 SPIN MULTIPLICITY                            =    3
 NUMBER OF OCCUPIED ORBITALS (ALPHA)          =   17
 NUMBER OF OCCUPIED ORBITALS (BETA )          =   15
 TOTAL NUMBER OF ATOMS                        =    2
 THE NUCLEAR REPULSION ENERGY IS       70.4951445266

 THIS MOLECULE IS RECOGNIZED AS BEING LINEAR,
 ORBITAL LZ DEGENERACY TOLERANCE ETOLLZ= 1.00E-06

     $CONTRL OPTIONS
     ---------------
 SCFTYP=UHF          RUNTYP=OPTIMIZE     EXETYP=RUN     
 MPLEVL=       0     CITYP =NONE         CCTYP =NONE         VBTYP =NONE    
 DFTTYP=NONE         TDDFT =NONE    
 MULT  =       3     ICHARG=       0     NZVAR =       0     COORD =UNIQUE  
 PP    =NONE         RELWFN=NONE         LOCAL =NONE         NUMGRD=       F
 ISPHER=      -1     NOSYM =       0     MAXIT =      30     UNITS =ANGS    
 PLTORB=       F     MOLPLT=       F     AIMPAC=       F     FRIEND=        
 NPRINT=       7     IREST =       0     GEOM  =INPUT   
 NORMF =       0     NORMP =       0     ITOL  =      20     ICUT  =       9
 INTTYP=BEST         GRDTYP=BEST         QMTTOL= 1.0E-06

     $SYSTEM OPTIONS
     ---------------
  REPLICATED MEMORY=     1000000 WORDS (ON EVERY NODE).
 DISTRIBUTED MEMDDI=           0 MILLION WORDS IN AGGREGATE,
 MEMDDI DISTRIBUTED OVER   1 PROCESSORS IS           0 WORDS/PROCESSOR.
 TOTAL MEMORY REQUESTED ON EACH PROCESSOR=     1000000 WORDS.
 TIMLIM=      525600.00 MINUTES, OR     365.0 DAYS.
 PARALL= F  BALTYP=  DLB     KDIAG=    0  COREFL= F
 MXSEQ2=     300 MXSEQ3=     150  mem10=         0  mem22=         0

          ----------------
          PROPERTIES INPUT
          ----------------

     MOMENTS            FIELD           POTENTIAL          DENSITY
 IEMOM =       1   IEFLD =       0   IEPOT =       0   IEDEN =       0
 WHERE =COMASS     WHERE =NUCLEI     WHERE =NUCLEI     WHERE =NUCLEI  
 OUTPUT=BOTH       OUTPUT=BOTH       OUTPUT=BOTH       OUTPUT=BOTH    
 IEMINT=       0   IEFINT=       0                     IEDINT=       0
                                                       MORB  =       0
          EXTRAPOLATION IN EFFECT
          SOSCF IN EFFECT
          DIIS or SOSCF will be reset if energy rises
 ORBITAL PRINTING OPTION: NPREO=     1    38     2     1

     -------------------------------
     INTEGRAL TRANSFORMATION OPTIONS
     -------------------------------
     NWORD  =            0
     CUTTRF = 1.0E-09     MPTRAN =       0
     DIRTRF =       F     AOINTS =DUP     

          ----------------------
          INTEGRAL INPUT OPTIONS
          ----------------------
 NOPK  =       1 NORDER=       0 SCHWRZ=       F

     ------------------------------------------
     THE POINT GROUP IS C1 , NAXIS= 0, ORDER= 1
     ------------------------------------------

     DIMENSIONS OF THE SYMMETRY SUBSPACES ARE
 A   =   38

 ..... DONE SETTING UP THE RUN .....
 STEP CPU TIME =     0.00 TOTAL CPU TIME =          0.0 (      0.0 MIN)
 TOTAL WALL CLOCK TIME=          0.0 SECONDS, CPU UTILIZATION IS    97.45%


          -----------------------------
          STATIONARY POINT LOCATION RUN
          -----------------------------

 OBTAINING INITIAL HESSIAN, HESS=GUESS   
 CARTESIAN COORDINATE OPTIMIZATION USING BADGER'S RULE FORCE CONSTANT GUESS

          PARAMETERS CONTROLLING GEOMETRY SEARCH ARE
          METHOD =QA                  UPHESS =BFGS    
          NNEG   =         0          NFRZ   =         0
          NSTEP  =        50          IFOLOW =         1
          HESS   =GUESS               RESTAR =         F
          IHREP  =         0          HSSEND =         F
          NPRT   =         0          NPUN   =         0
          OPTTOL = 1.000E-04          RMIN   = 1.500E-03
          RMAX   = 1.000E-01          RLIM   = 7.000E-02
          DXMAX  = 3.000E-01          PURIFY =         F
          MOVIE  =         F          TRUPD  =         T
          TRMAX  = 5.000E-01          TRMIN  = 5.000E-02
          ITBMAT =         5          STPT   =         F
          STSTEP = 1.000E-02          PROJCT=          T

 BEGINNING GEOMETRY SEARCH POINT NSERCH=   0 ...

 COORDINATES OF ALL ATOMS ARE (ANGS)
   ATOM   CHARGE       X              Y              Z
 ------------------------------------------------------------
 S          16.0   0.0000000000   0.0000000000   0.9608418900
 S          16.0   0.0000000000   0.0000000000  -0.9608418900

          ********************
          1 ELECTRON INTEGRALS
          ********************
 ...... END OF ONE-ELECTRON INTEGRALS ......
 STEP CPU TIME =     0.00 TOTAL CPU TIME =          0.0 (      0.0 MIN)
 TOTAL WALL CLOCK TIME=          0.0 SECONDS, CPU UTILIZATION IS    97.75%

          -------------
          GUESS OPTIONS
          -------------
          GUESS =HUCKEL            NORB  =       0          NORDER=       0
          MIX   =       F          PRTMO =       F          PUNMO =       F
          TOLZ  = 1.0E-08          TOLE  = 1.0E-05
          SYMDEN=       F          PURIFY=       F

 INITIAL GUESS ORBITALS GENERATED BY HUCKEL   ROUTINE.
 HUCKEL GUESS REQUIRES     13778 WORDS.

 SYMMETRIES FOR INITIAL GUESS ORBITALS FOLLOW.  ALPHA SET(S).
    17 ORBITALS ARE OCCUPIED (   10 CORE ORBITALS).
    11=A       12=A       13=A       14=A       15=A       16=A       17=A   
    18=A       19=A       20=A       21=A       22=A       23=A       24=A   
    25=A       26=A       27=A   

 SYMMETRIES FOR INITIAL GUESS ORBITALS FOLLOW.   BETA SET(S).
    15 ORBITALS ARE OCCUPIED (   10 CORE ORBITALS).
    11=A       12=A       13=A       14=A       15=A       16=A       17=A   
    18=A       19=A       20=A       21=A       22=A       23=A       24=A   
    25=A   
 ...... END OF INITIAL ORBITAL SELECTION ......
 STEP CPU TIME =     0.00 TOTAL CPU TIME =          0.0 (      0.0 MIN)
 TOTAL WALL CLOCK TIME=          0.0 SECONDS, CPU UTILIZATION IS    98.14%

                    ----------------------
                    AO INTEGRAL TECHNOLOGY
                    ----------------------
     S,P,L SHELL ROTATED AXIS INTEGRALS, REPROGRAMMED BY
        KAZUYA ISHIMURA (IMS) AND JOSE SIERRA (SYNSTAR).
     S,P,D,L SHELL ROTATED AXIS INTEGRALS PROGRAMMED BY
        KAZUYA ISHIMURA (INSTITUTE FOR MOLECULAR SCIENCE).
     S,P,D,F,G SHELL TO TOTAL QUARTET ANGULAR MOMENTUM SUM 5,
        ERIC PROGRAM BY GRAHAM FLETCHER (ELORET AND NASA ADVANCED
        SUPERCOMPUTING DIVISION, AMES RESEARCH CENTER).
     S,P,D,F,G,L SHELL GENERAL RYS QUADRATURE PROGRAMMED BY
        MICHEL DUPUIS (PACIFIC NORTHWEST NATIONAL LABORATORY).

          --------------------
          2 ELECTRON INTEGRALS
          --------------------

 THE -PK- OPTION IS OFF, THE INTEGRALS ARE NOT IN SUPERMATRIX FORM.
 STORING   15000 INTEGRALS/RECORD ON DISK, USING 12 BYTES/INTEGRAL.
 TWO ELECTRON INTEGRAL EVALUATION REQUIRES   90451 WORDS OF MEMORY.
 II,JST,KST,LST =  1  1  1  1 NREC =         1 INTLOC =    1
 II,JST,KST,LST =  2  1  1  1 NREC =         1 INTLOC =    2
 II,JST,KST,LST =  3  1  1  1 NREC =         1 INTLOC =   34
 II,JST,KST,LST =  4  1  1  1 NREC =         1 INTLOC =  214
 II,JST,KST,LST =  5  1  1  1 NREC =         1 INTLOC =  776
 II,JST,KST,LST =  6  1  1  1 NREC =         1 INTLOC = 2864
 II,JST,KST,LST =  7  1  1  1 NREC =         1 INTLOC = 3749
 II,JST,KST,LST =  8  1  1  1 NREC =         1 INTLOC = 9526
 II,JST,KST,LST =  9  1  1  1 NREC =         2 INTLOC = 4753
 II,JST,KST,LST = 10  1  1  1 NREC =         3 INTLOC = 5243
 TOTAL NUMBER OF NONZERO TWO-ELECTRON INTEGRALS =               69387
          5 INTEGRAL RECORDS WERE STORED ON DISK FILE  8.
  ...... END OF TWO-ELECTRON INTEGRALS .....
 STEP CPU TIME =     0.01 TOTAL CPU TIME =          0.0 (      0.0 MIN)
 TOTAL WALL CLOCK TIME=          0.0 SECONDS, CPU UTILIZATION IS    99.42%

          ---------------------------
                  UHF SCF CALCULATION
          ---------------------------

     NUCLEAR ENERGY =        70.4951445266
     MAXIT = 30     NPUNCH=  2     MULT=  3
     EXTRAP=T  DAMP=F  SHIFT=F  RSTRCT=F  DIIS=F  SOSCF=T
     DENSITY MATRIX CONV=  1.00E-05
     SOSCF WILL OPTIMIZE     357 ALPHA AND     345 BETA ROTATION ANGLES.
     SOGTOL= 2.500E-01
     MEMORY REQUIRED FOR UHF/ROHF ITERS=     49962 WORDS.

 ITER EX      TOTAL ENERGY        E CHANGE  DENSITY CHANGE    ORB. GRAD 
   1  0     -794.5657909661  -794.5657909661   0.252767097   0.000000000
          ---------------START SECOND ORDER SCF---------------
   2  1     -794.9981649435    -0.4323739774   0.057209276   0.047434552
   3  2     -795.0135485223    -0.0153835788   0.036370647   0.018865192
   4  3     -795.0152271853    -0.0016786629   0.004891006   0.003362697
   5  4     -795.0153079279    -0.0000807427   0.001337661   0.000697110
   6  5     -795.0153112545    -0.0000033266   0.000815413   0.000188723
   7  6     -795.0153116221    -0.0000003676   0.000174201   0.000053173
   8  7     -795.0153116448    -0.0000000227   0.000064234   0.000016850
   9  8     -795.0153116476    -0.0000000028   0.000010736   0.000005704
  10  9     -795.0153116477    -0.0000000001   0.000002132   0.000001276
  11 10     -795.0153116478    -0.0000000000   0.000000782   0.000000375

          -----------------
          DENSITY CONVERGED
          -----------------
     TIME TO FORM FOCK OPERATORS=       0.0 SECONDS (       0.0 SEC/ITER)
     TIME TO SOLVE SCF EQUATIONS=       0.0 SECONDS (       0.0 SEC/ITER)

 FINAL UHF ENERGY IS     -795.0153116478 AFTER  11 ITERATIONS

          --------------------
          SPIN SZ   =    1.000
          S-SQUARED =    2.029
          --------------------

 LZ VALUE ANALYSIS FOR THE MOS
 ----------------------------------------
 MO     1 (    1) HAS LZ(WEIGHT)= 0.00(100.0%) 
 MO     2 (    2) HAS LZ(WEIGHT)= 0.00(100.0%) 
 MO     3 (    3) HAS LZ(WEIGHT)= 0.00(100.0%) 
 MO     4 (    4) HAS LZ(WEIGHT)= 0.00(100.0%) 
 MO     5 (    5) HAS LZ(WEIGHT)=-1.00( 50.0%)  1.00( 50.0%) 
 MO     6 (    5) HAS LZ(WEIGHT)=-1.00( 50.0%)  1.00( 50.0%) 
 MO     7 (    6) HAS LZ(WEIGHT)=-1.00( 50.0%)  1.00( 50.0%) 
 MO     8 (    6) HAS LZ(WEIGHT)=-1.00( 50.0%)  1.00( 50.0%) 
 MO     9 (    7) HAS LZ(WEIGHT)= 0.00(100.0%) 
 MO    10 (    8) HAS LZ(WEIGHT)= 0.00(100.0%) 
 MO    11 (    9) HAS LZ(WEIGHT)= 0.00(100.0%) 
 MO    12 (   10) HAS LZ(WEIGHT)= 0.00(100.0%) 
 MO    13 (   11) HAS LZ(WEIGHT)=-1.00( 50.0%)  1.00( 50.0%) 
 MO    14 (   11) HAS LZ(WEIGHT)=-1.00( 50.0%)  1.00( 50.0%) 
 MO    15 (   12) HAS LZ(WEIGHT)= 0.00(100.0%) 
 MO    16 (   13) HAS LZ(WEIGHT)=-1.00( 50.0%)  1.00( 50.0%) 
 MO    17 (   13) HAS LZ(WEIGHT)=-1.00( 50.0%)  1.00( 50.0%) 
 MO    18 (   14) HAS LZ(WEIGHT)= 0.00(100.0%) 
 MO    19 (   15) HAS LZ(WEIGHT)= 0.00(100.0%) 
 MO    20 (   16) HAS LZ(WEIGHT)= 0.00(100.0%) 
 MO    21 (   17) HAS LZ(WEIGHT)=-1.00( 50.0%)  1.00( 50.0%) 
 MO    22 (   17) HAS LZ(WEIGHT)=-1.00( 50.0%)  1.00( 50.0%) 
 MO    23 (   18) HAS LZ(WEIGHT)= 0.00(100.0%) 
 MO    24 (   19) HAS LZ(WEIGHT)=-1.00( 50.0%)  1.00( 50.0%) 
 MO    25 (   19) HAS LZ(WEIGHT)=-1.00( 50.0%)  1.00( 50.0%) 
 MO    26 (   20) HAS LZ(WEIGHT)= 0.00(100.0%) 
 MO    27 (   21) HAS LZ(WEIGHT)=-1.00( 50.0%)  1.00( 50.0%) 
 MO    28 (   21) HAS LZ(WEIGHT)=-1.00( 50.0%)  1.00( 50.0%) 
 MO    29 (   22) HAS LZ(WEIGHT)=-2.00( 50.0%)  2.00( 50.0%) 
 MO    30 (   22) HAS LZ(WEIGHT)=-2.00( 50.0%)  2.00( 50.0%) 
 MO    31 (   23) HAS LZ(WEIGHT)=-2.00( 50.0%)  2.00( 50.0%) 
 MO    32 (   23) HAS LZ(WEIGHT)=-2.00( 50.0%)  2.00( 50.0%) 
 MO    33 (   24) HAS LZ(WEIGHT)= 0.00(100.0%) 
 MO    34 (   25) HAS LZ(WEIGHT)=-1.00( 50.0%)  1.00( 50.0%) 
 MO    35 (   25) HAS LZ(WEIGHT)=-1.00( 50.0%)  1.00( 50.0%) 
 MO    36 (   26) HAS LZ(WEIGHT)= 0.00(100.0%) 
 MO    37 (   27) HAS LZ(WEIGHT)= 0.00(100.0%) 
 MO    38 (   28) HAS LZ(WEIGHT)= 0.00(100.0%) 

  ----- ALPHA SET ----- 

          ------------
          EIGENVECTORS
          ------------

                      1          2          3          4          5
                  -92.0109   -92.0109    -9.0214    -9.0211    -6.7083
                     A          A          A          A          A   
    1  S  1  S   -0.704447   0.704456  -0.199279   0.199287  -0.000000
    2  S  1  S   -0.010101   0.010115   0.728488  -0.728649  -0.000000
    3  S  1  X    0.000000   0.000000  -0.000000   0.000000   0.702429
    4  S  1  Y    0.000000   0.000000  -0.000000   0.000000   0.019872
    5  S  1  Z    0.000061  -0.000050  -0.003734   0.003618  -0.000000
    6  S  1  S    0.014377  -0.014031   0.016161  -0.016224  -0.000000
    7  S  1  X    0.000000   0.000000  -0.000000   0.000000   0.014509
    8  S  1  Y    0.000000   0.000000  -0.000000   0.000000   0.000410
    9  S  1  Z   -0.000201  -0.000044  -0.000635   0.001133  -0.000000
   10  S  1  S   -0.002646   0.001573  -0.003568   0.007794  -0.000000
   11  S  1  X    0.000000   0.000000  -0.000000   0.000000  -0.003043
   12  S  1  Y    0.000000   0.000000  -0.000000   0.000000  -0.000086
   13  S  1  Z    0.000559  -0.000034   0.000409  -0.002622  -0.000000
   14  S  1 XX   -0.004909   0.004898  -0.000519   0.000348  -0.000000
   15  S  1 YY   -0.004909   0.004898  -0.000519   0.000348  -0.000000
   16  S  1 ZZ   -0.004887   0.004938  -0.000931   0.000084  -0.000000
   17  S  1 XY    0.000000   0.000000  -0.000000   0.000000  -0.000000
   18  S  1 XZ    0.000000   0.000000  -0.000000   0.000000  -0.000066
   19  S  1 YZ    0.000000   0.000000  -0.000000   0.000000  -0.000002
   20  S  2  S    0.704447   0.704456  -0.199279  -0.199287  -0.000000
   21  S  2  S    0.010101   0.010115   0.728488   0.728649  -0.000000
   22  S  2  X    0.000000   0.000000  -0.000000   0.000000   0.702429
   23  S  2  Y    0.000000   0.000000  -0.000000   0.000000   0.019872
   24  S  2  Z    0.000061   0.000050   0.003734   0.003618  -0.000000
   25  S  2  S   -0.014377  -0.014031   0.016161   0.016224  -0.000000
   26  S  2  X    0.000000   0.000000  -0.000000   0.000000   0.014509
   27  S  2  Y    0.000000   0.000000  -0.000000   0.000000   0.000410
   28  S  2  Z   -0.000201   0.000044   0.000635   0.001133  -0.000000
   29  S  2  S    0.002646   0.001573  -0.003568  -0.007794  -0.000000
   30  S  2  X    0.000000   0.000000  -0.000000   0.000000  -0.003043
   31  S  2  Y    0.000000   0.000000  -0.000000   0.000000  -0.000086
   32  S  2  Z    0.000559   0.000034  -0.000409  -0.002622  -0.000000
   33  S  2 XX    0.004909   0.004898  -0.000519  -0.000348  -0.000000
   34  S  2 YY    0.004909   0.004898  -0.000519  -0.000348  -0.000000
   35  S  2 ZZ    0.004887   0.004938  -0.000931  -0.000084  -0.000000
   36  S  2 XY    0.000000   0.000000  -0.000000   0.000000  -0.000000
   37  S  2 XZ    0.000000   0.000000  -0.000000   0.000000   0.000066
   38  S  2 YZ    0.000000   0.000000  -0.000000   0.000000   0.000002

                      6          7          8          9         10
                   -6.7083    -6.7082    -6.7082    -6.6996    -6.6988
                     A          A          A          A          A   
    1  S  1  S    0.000000  -0.000000  -0.000000  -0.001239  -0.001149
    2  S  1  S    0.000000  -0.000000  -0.000000   0.004715   0.004328
    3  S  1  X   -0.019872  -0.617325   0.335614  -0.000000   0.000000
    4  S  1  Y    0.702429   0.335614   0.617325  -0.000000   0.000000
    5  S  1  Z    0.000000  -0.000000  -0.000000   0.702156   0.702163
    6  S  1  S    0.000000  -0.000000  -0.000000  -0.003063  -0.002162
    7  S  1  X   -0.000410  -0.013056   0.007098  -0.000000   0.000000
    8  S  1  Y    0.014509   0.007098   0.013056  -0.000000   0.000000
    9  S  1  Z    0.000000  -0.000000  -0.000000   0.015605   0.017339
   10  S  1  S    0.000000  -0.000000  -0.000000  -0.000323   0.002379
   11  S  1  X    0.000086   0.003559  -0.001935  -0.000000   0.000000
   12  S  1  Y   -0.003043  -0.001935  -0.003559  -0.000000   0.000000
   13  S  1  Z    0.000000  -0.000000  -0.000000  -0.004088  -0.004812
   14  S  1 XX    0.000000  -0.000000  -0.000000   0.001043   0.000958
   15  S  1 YY    0.000000  -0.000000  -0.000000   0.001043   0.000958
   16  S  1 ZZ    0.000000  -0.000000  -0.000000   0.000798  -0.001397
   17  S  1 XY    0.000000  -0.000000  -0.000000  -0.000000   0.000000
   18  S  1 XZ    0.000002   0.000364  -0.000198  -0.000000   0.000000
   19  S  1 YZ   -0.000066  -0.000198  -0.000364  -0.000000   0.000000
   20  S  2  S    0.000000  -0.000000  -0.000000  -0.001239   0.001149
   21  S  2  S    0.000000  -0.000000  -0.000000   0.004715  -0.004328
   22  S  2  X   -0.019872   0.617325  -0.335614  -0.000000   0.000000
   23  S  2  Y    0.702429  -0.335614  -0.617325  -0.000000   0.000000
   24  S  2  Z    0.000000  -0.000000  -0.000000  -0.702156   0.702163
   25  S  2  S    0.000000  -0.000000  -0.000000  -0.003063   0.002162
   26  S  2  X   -0.000410   0.013056  -0.007098  -0.000000   0.000000
   27  S  2  Y    0.014509  -0.007098  -0.013056  -0.000000   0.000000
   28  S  2  Z    0.000000  -0.000000  -0.000000  -0.015605   0.017339
   29  S  2  S    0.000000  -0.000000  -0.000000  -0.000323  -0.002379
   30  S  2  X    0.000086  -0.003559   0.001935  -0.000000   0.000000
   31  S  2  Y   -0.003043   0.001935   0.003559  -0.000000   0.000000
   32  S  2  Z    0.000000  -0.000000  -0.000000   0.004088  -0.004812
   33  S  2 XX    0.000000  -0.000000  -0.000000   0.001043  -0.000958
   34  S  2 YY    0.000000  -0.000000  -0.000000   0.001043  -0.000958
   35  S  2 ZZ    0.000000  -0.000000  -0.000000   0.000798   0.001397
   36  S  2 XY    0.000000  -0.000000  -0.000000  -0.000000   0.000000
   37  S  2 XZ   -0.000002   0.000364  -0.000198  -0.000000   0.000000
   38  S  2 YZ    0.000066  -0.000198  -0.000364  -0.000000   0.000000

                     11         12         13         14         15
                   -1.1194    -0.8729    -0.5397    -0.5397    -0.5347
                     A          A          A          A          A   
    1  S  1  S    0.052393  -0.055410  -0.000000   0.000000   0.014767
    2  S  1  S   -0.239324   0.257343  -0.000000   0.000000  -0.072629
    3  S  1  X    0.000000  -0.000000  -0.188911  -0.009490  -0.000000
    4  S  1  Y    0.000000  -0.000000   0.009490  -0.188911  -0.000000
    5  S  1  Z    0.057585   0.046263  -0.000000   0.000000  -0.197157
    6  S  1  S    0.483278  -0.536267  -0.000000   0.000000   0.153928
    7  S  1  X    0.000000  -0.000000   0.510230   0.025631  -0.000000
    8  S  1  Y    0.000000  -0.000000  -0.025631   0.510230  -0.000000
    9  S  1  Z   -0.132885  -0.114456  -0.000000   0.000000   0.521438
   10  S  1  S    0.150586  -0.340399  -0.000000   0.000000   0.180699
   11  S  1  X    0.000000  -0.000000   0.212669   0.010683  -0.000000
   12  S  1  Y    0.000000  -0.000000  -0.010683   0.212669  -0.000000
   13  S  1  Z   -0.003628   0.025801  -0.000000   0.000000   0.155835
   14  S  1 XX   -0.003250  -0.015864  -0.000000   0.000000   0.028366
   15  S  1 YY   -0.003250  -0.015864  -0.000000   0.000000   0.028366
   16  S  1 ZZ    0.035901   0.026036  -0.000000   0.000000  -0.080736
   17  S  1 XY    0.000000  -0.000000  -0.000000   0.000000  -0.000000
   18  S  1 XZ    0.000000  -0.000000  -0.032817  -0.001649  -0.000000
   19  S  1 YZ    0.000000  -0.000000   0.001649  -0.032817  -0.000000
   20  S  2  S    0.052393   0.055410  -0.000000   0.000000   0.014767
   21  S  2  S   -0.239324  -0.257343  -0.000000   0.000000  -0.072629
   22  S  2  X    0.000000  -0.000000  -0.188911  -0.009490  -0.000000
   23  S  2  Y    0.000000  -0.000000   0.009490  -0.188911  -0.000000
   24  S  2  Z   -0.057585   0.046263  -0.000000   0.000000   0.197157
   25  S  2  S    0.483278   0.536267  -0.000000   0.000000   0.153928
   26  S  2  X    0.000000  -0.000000   0.510230   0.025631  -0.000000
   27  S  2  Y    0.000000  -0.000000  -0.025631   0.510230  -0.000000
   28  S  2  Z    0.132885  -0.114456  -0.000000   0.000000  -0.521438
   29  S  2  S    0.150586   0.340399  -0.000000   0.000000   0.180699
   30  S  2  X    0.000000  -0.000000   0.212669   0.010683  -0.000000
   31  S  2  Y    0.000000  -0.000000  -0.010683   0.212669  -0.000000
   32  S  2  Z    0.003628   0.025801  -0.000000   0.000000  -0.155835
   33  S  2 XX   -0.003250   0.015864  -0.000000   0.000000   0.028366
   34  S  2 YY   -0.003250   0.015864  -0.000000   0.000000   0.028366
   35  S  2 ZZ    0.035901  -0.026036  -0.000000   0.000000  -0.080736
   36  S  2 XY    0.000000  -0.000000  -0.000000   0.000000  -0.000000
   37  S  2 XZ    0.000000  -0.000000   0.032817   0.001649  -0.000000
   38  S  2 YZ    0.000000  -0.000000  -0.001649   0.032817  -0.000000

                     16         17         18         19         20
                   -0.3865    -0.3865     0.1240     0.3728     0.4276
                     A          A          A          A          A   
    1  S  1  S    0.000000  -0.000000  -0.021936   0.035170  -0.030959
    2  S  1  S    0.000000  -0.000000   0.111676  -0.024826   0.067350
    3  S  1  X   -0.201017   0.006202  -0.000000  -0.000000   0.000000
    4  S  1  Y    0.006202   0.201017  -0.000000  -0.000000   0.000000
    5  S  1  Z    0.000000  -0.000000  -0.143947   0.043820   0.126714
    6  S  1  S    0.000000  -0.000000  -0.217001   0.817869  -0.618759
    7  S  1  X    0.557416  -0.017198  -0.000000  -0.000000   0.000000
    8  S  1  Y   -0.017198  -0.557416  -0.000000  -0.000000   0.000000
    9  S  1  Z    0.000000  -0.000000   0.388501  -0.285319  -0.563583
   10  S  1  S    0.000000  -0.000000  -1.090580  -0.772428   0.790766
   11  S  1  X    0.356413  -0.010997  -0.000000  -0.000000   0.000000
   12  S  1  Y   -0.010997  -0.356413  -0.000000  -0.000000   0.000000
   13  S  1  Z    0.000000  -0.000000   1.211217   0.475489   0.752283
   14  S  1 XX    0.000000  -0.000000  -0.036603  -0.043055  -0.080740
   15  S  1 YY    0.000000  -0.000000  -0.036603  -0.043055  -0.080740
   16  S  1 ZZ    0.000000  -0.000000   0.077782   0.285445   0.113563
   17  S  1 XY    0.000000  -0.000000  -0.000000  -0.000000   0.000000
   18  S  1 XZ    0.026666  -0.000823  -0.000000  -0.000000   0.000000
   19  S  1 YZ   -0.000823  -0.026666  -0.000000  -0.000000   0.000000
   20  S  2  S    0.000000  -0.000000   0.021936   0.035170  -0.030959
   21  S  2  S    0.000000  -0.000000  -0.111676  -0.024826   0.067350
   22  S  2  X    0.201017  -0.006202  -0.000000  -0.000000   0.000000
   23  S  2  Y   -0.006202  -0.201017  -0.000000  -0.000000   0.000000
   24  S  2  Z    0.000000  -0.000000  -0.143947  -0.043820  -0.126714
   25  S  2  S    0.000000  -0.000000   0.217001   0.817869  -0.618759
   26  S  2  X   -0.557416   0.017198  -0.000000  -0.000000   0.000000
   27  S  2  Y    0.017198   0.557416  -0.000000  -0.000000   0.000000
   28  S  2  Z    0.000000  -0.000000   0.388501   0.285319   0.563583
   29  S  2  S    0.000000  -0.000000   1.090580  -0.772428   0.790766
   30  S  2  X   -0.356413   0.010997  -0.000000  -0.000000   0.000000
   31  S  2  Y    0.010997   0.356413  -0.000000  -0.000000   0.000000
   32  S  2  Z    0.000000  -0.000000   1.211217  -0.475489  -0.752283
   33  S  2 XX    0.000000  -0.000000   0.036603  -0.043055  -0.080740
   34  S  2 YY    0.000000  -0.000000   0.036603  -0.043055  -0.080740
   35  S  2 ZZ    0.000000  -0.000000  -0.077782   0.285445   0.113563
   36  S  2 XY    0.000000  -0.000000  -0.000000  -0.000000   0.000000
   37  S  2 XZ    0.026666  -0.000823  -0.000000  -0.000000   0.000000
   38  S  2 YZ   -0.000823  -0.026666  -0.000000  -0.000000   0.000000

                     21         22         23         24         25
                    0.4835     0.4835     0.5013     0.5308     0.5308
                     A          A          A          A          A   
    1  S  1  S    0.000000  -0.000000   0.028050   0.000000   0.000000
    2  S  1  S    0.000000  -0.000000  -0.015344   0.000000   0.000000
    3  S  1  X   -0.001412  -0.196406  -0.000000  -0.180511  -0.079508
    4  S  1  Y   -0.196406   0.001412  -0.000000  -0.079508   0.180511
    5  S  1  Z    0.000000  -0.000000  -0.190324   0.000000   0.000000
    6  S  1  S    0.000000  -0.000000   0.693634   0.000000   0.000000
    7  S  1  X    0.005865   0.815929  -0.000000   0.759783   0.334653
    8  S  1  Y    0.815929  -0.005865  -0.000000   0.334653  -0.759783
    9  S  1  Z    0.000000  -0.000000   0.730771   0.000000   0.000000
   10  S  1  S    0.000000  -0.000000  -0.990470   0.000000   0.000000
   11  S  1  X   -0.005493  -0.764237  -0.000000  -1.081822  -0.476497
   12  S  1  Y   -0.764237   0.005493  -0.000000  -0.476497   1.081822
   13  S  1  Z    0.000000  -0.000000  -0.407923   0.000000   0.000000
   14  S  1 XX    0.000000  -0.000000  -0.009457   0.000000   0.000000
   15  S  1 YY    0.000000  -0.000000  -0.009457   0.000000   0.000000
   16  S  1 ZZ    0.000000  -0.000000   0.124698   0.000000   0.000000
   17  S  1 XY    0.000000  -0.000000  -0.000000   0.000000   0.000000
   18  S  1 XZ   -0.000335  -0.046543  -0.000000  -0.041540  -0.018297
   19  S  1 YZ   -0.046543   0.000335  -0.000000  -0.018297   0.041540
   20  S  2  S    0.000000  -0.000000  -0.028050   0.000000   0.000000
   21  S  2  S    0.000000  -0.000000   0.015344   0.000000   0.000000
   22  S  2  X   -0.001412  -0.196406  -0.000000   0.180511   0.079508
   23  S  2  Y   -0.196406   0.001412  -0.000000   0.079508  -0.180511
   24  S  2  Z    0.000000  -0.000000  -0.190324   0.000000   0.000000
   25  S  2  S    0.000000  -0.000000  -0.693634   0.000000   0.000000
   26  S  2  X    0.005865   0.815929  -0.000000  -0.759783  -0.334653
   27  S  2  Y    0.815929  -0.005865  -0.000000  -0.334653   0.759783
   28  S  2  Z    0.000000  -0.000000   0.730771   0.000000   0.000000
   29  S  2  S    0.000000  -0.000000   0.990470   0.000000   0.000000
   30  S  2  X   -0.005493  -0.764237  -0.000000   1.081822   0.476497
   31  S  2  Y   -0.764237   0.005493  -0.000000   0.476497  -1.081822
   32  S  2  Z    0.000000  -0.000000  -0.407923   0.000000   0.000000
   33  S  2 XX    0.000000  -0.000000   0.009457   0.000000   0.000000
   34  S  2 YY    0.000000  -0.000000   0.009457   0.000000   0.000000
   35  S  2 ZZ    0.000000  -0.000000  -0.124698   0.000000   0.000000
   36  S  2 XY    0.000000  -0.000000  -0.000000   0.000000   0.000000
   37  S  2 XZ    0.000335   0.046543  -0.000000  -0.041540  -0.018297
   38  S  2 YZ    0.046543  -0.000335  -0.000000  -0.018297   0.041540

                     26         27         28         29         30
                    0.6513     0.7928     0.7928     0.9199     0.9199
                     A          A          A          A          A   
    1  S  1  S    0.043197  -0.000000   0.000000   0.000000   0.000000
    2  S  1  S   -0.000377  -0.000000   0.000000   0.000000   0.000000
    3  S  1  X    0.000000   0.000363   0.031696   0.000000   0.000000
    4  S  1  Y    0.000000  -0.031696   0.000363   0.000000   0.000000
    5  S  1  Z    0.156387  -0.000000   0.000000   0.000000   0.000000
    6  S  1  S    1.139199  -0.000000   0.000000   0.000000   0.000000
    7  S  1  X    0.000000  -0.001191  -0.103943   0.000000   0.000000
    8  S  1  Y    0.000000   0.103943  -0.001191   0.000000   0.000000
    9  S  1  Z   -0.611640  -0.000000   0.000000   0.000000   0.000000
   10  S  1  S   -3.516276  -0.000000   0.000000   0.000000   0.000000
   11  S  1  X    0.000000   0.000064   0.005555   0.000000   0.000000
   12  S  1  Y    0.000000  -0.005555   0.000064   0.000000   0.000000
   13  S  1  Z    2.181070  -0.000000   0.000000   0.000000   0.000000
   14  S  1 XX    0.064942  -0.000000   0.000000  -0.608202   0.000000
   15  S  1 YY    0.064942  -0.000000   0.000000   0.608202  -0.000000
   16  S  1 ZZ    0.044032  -0.000000   0.000000   0.000000   0.000000
   17  S  1 XY    0.000000  -0.000000   0.000000   0.000000   0.702291
   18  S  1 XZ    0.000000  -0.007713  -0.673010   0.000000   0.000000
   19  S  1 YZ    0.000000   0.673010  -0.007713   0.000000   0.000000
   20  S  2  S   -0.043197  -0.000000   0.000000   0.000000   0.000000
   21  S  2  S    0.000377  -0.000000   0.000000   0.000000   0.000000
   22  S  2  X    0.000000   0.000363   0.031696   0.000000   0.000000
   23  S  2  Y    0.000000  -0.031696   0.000363   0.000000   0.000000
   24  S  2  Z    0.156387  -0.000000   0.000000   0.000000   0.000000
   25  S  2  S   -1.139199  -0.000000   0.000000   0.000000   0.000000
   26  S  2  X    0.000000  -0.001191  -0.103943   0.000000   0.000000
   27  S  2  Y    0.000000   0.103943  -0.001191   0.000000   0.000000
   28  S  2  Z   -0.611640  -0.000000   0.000000   0.000000   0.000000
   29  S  2  S    3.516276  -0.000000   0.000000   0.000000   0.000000
   30  S  2  X    0.000000   0.000064   0.005555   0.000000   0.000000
   31  S  2  Y    0.000000  -0.005555   0.000064   0.000000   0.000000
   32  S  2  Z    2.181070  -0.000000   0.000000   0.000000   0.000000
   33  S  2 XX   -0.064942  -0.000000   0.000000  -0.608202   0.000000
   34  S  2 YY   -0.064942  -0.000000   0.000000   0.608202  -0.000000
   35  S  2 ZZ   -0.044032  -0.000000   0.000000   0.000000   0.000000
   36  S  2 XY    0.000000  -0.000000   0.000000   0.000000   0.702291
   37  S  2 XZ    0.000000   0.007713   0.673010   0.000000   0.000000
   38  S  2 YZ    0.000000  -0.673010   0.007713   0.000000   0.000000

                     31         32         33         34         35
                    0.9852     0.9852     1.0105     1.2060     1.2060
                     A          A          A          A          A   
    1  S  1  S   -0.000000  -0.000000  -0.016286   0.000000   0.000000
    2  S  1  S   -0.000000  -0.000000   0.020916   0.000000   0.000000
    3  S  1  X   -0.000000  -0.000000  -0.000000  -0.000112  -0.000759
    4  S  1  Y   -0.000000  -0.000000  -0.000000  -0.000759   0.000112
    5  S  1  Z   -0.000000  -0.000000  -0.117863   0.000000   0.000000
    6  S  1  S   -0.000000  -0.000000  -0.392646   0.000000   0.000000
    7  S  1  X   -0.000000  -0.000000  -0.000000   0.006075   0.041207
    8  S  1  Y   -0.000000  -0.000000  -0.000000   0.041207  -0.006075
    9  S  1  Z   -0.000000  -0.000000   0.518824   0.000000   0.000000
   10  S  1  S   -0.000000  -0.000000   0.192002   0.000000   0.000000
   11  S  1  X   -0.000000  -0.000000  -0.000000  -0.035404  -0.240143
   12  S  1  Y   -0.000000  -0.000000  -0.000000  -0.240143   0.035404
   13  S  1  Z   -0.000000  -0.000000  -0.490499   0.000000   0.000000
   14  S  1 XX    0.000000  -0.616630  -0.310763   0.000000   0.000000
   15  S  1 YY   -0.000000   0.616630  -0.310763   0.000000   0.000000
   16  S  1 ZZ   -0.000000  -0.000000   0.607758   0.000000   0.000000
   17  S  1 XY    0.712023   0.000000  -0.000000   0.000000   0.000000
   18  S  1 XZ   -0.000000  -0.000000  -0.000000   0.110004   0.746146
   19  S  1 YZ   -0.000000  -0.000000  -0.000000   0.746146  -0.110004
   20  S  2  S   -0.000000  -0.000000  -0.016286   0.000000   0.000000
   21  S  2  S   -0.000000  -0.000000   0.020916   0.000000   0.000000
   22  S  2  X   -0.000000  -0.000000  -0.000000   0.000112   0.000759
   23  S  2  Y   -0.000000  -0.000000  -0.000000   0.000759  -0.000112
   24  S  2  Z   -0.000000  -0.000000   0.117863   0.000000   0.000000
   25  S  2  S   -0.000000  -0.000000  -0.392646   0.000000   0.000000
   26  S  2  X   -0.000000  -0.000000  -0.000000  -0.006075  -0.041207
   27  S  2  Y   -0.000000  -0.000000  -0.000000  -0.041207   0.006075
   28  S  2  Z   -0.000000  -0.000000  -0.518824   0.000000   0.000000
   29  S  2  S   -0.000000  -0.000000   0.192002   0.000000   0.000000
   30  S  2  X   -0.000000  -0.000000  -0.000000   0.035404   0.240143
   31  S  2  Y   -0.000000  -0.000000  -0.000000   0.240143  -0.035404
   32  S  2  Z   -0.000000  -0.000000   0.490499   0.000000   0.000000
   33  S  2 XX   -0.000000   0.616630  -0.310763   0.000000   0.000000
   34  S  2 YY    0.000000  -0.616630  -0.310763   0.000000   0.000000
   35  S  2 ZZ   -0.000000  -0.000000   0.607758   0.000000   0.000000
   36  S  2 XY   -0.712023  -0.000000  -0.000000   0.000000   0.000000
   37  S  2 XZ   -0.000000  -0.000000  -0.000000   0.110004   0.746146
   38  S  2 YZ   -0.000000  -0.000000  -0.000000   0.746146  -0.110004

                     36         37         38
                    1.5678     4.1584     4.3278
                     A          A          A   
    1  S  1  S   -0.005467   0.119833  -0.118779
    2  S  1  S    0.096270  -0.551652   0.542628
    3  S  1  X    0.000000   0.000000  -0.000000
    4  S  1  Y    0.000000   0.000000  -0.000000
    5  S  1  Z   -0.097537   0.010055   0.019231
    6  S  1  S    0.108670   4.465919  -4.556042
    7  S  1  X    0.000000   0.000000  -0.000000
    8  S  1  Y    0.000000   0.000000  -0.000000
    9  S  1  Z    0.349923   0.010143  -0.034263
   10  S  1  S   -1.451276  -0.198708   0.078712
   11  S  1  X    0.000000   0.000000  -0.000000
   12  S  1  Y    0.000000   0.000000  -0.000000
   13  S  1  Z    0.823827  -0.010630   0.098906
   14  S  1 XX    0.483796  -1.916003   1.903238
   15  S  1 YY    0.483796  -1.916003   1.903238
   16  S  1 ZZ   -0.828023  -1.842983   1.992290
   17  S  1 XY    0.000000   0.000000  -0.000000
   18  S  1 XZ    0.000000   0.000000  -0.000000
   19  S  1 YZ    0.000000   0.000000  -0.000000
   20  S  2  S    0.005467   0.119833   0.118779
   21  S  2  S   -0.096270  -0.551652  -0.542628
   22  S  2  X    0.000000   0.000000  -0.000000
   23  S  2  Y    0.000000   0.000000  -0.000000
   24  S  2  Z   -0.097537  -0.010055   0.019231
   25  S  2  S   -0.108670   4.465919   4.556042
   26  S  2  X    0.000000   0.000000  -0.000000
   27  S  2  Y    0.000000   0.000000  -0.000000
   28  S  2  Z    0.349923  -0.010143  -0.034263
   29  S  2  S    1.451276  -0.198708  -0.078712
   30  S  2  X    0.000000   0.000000  -0.000000
   31  S  2  Y    0.000000   0.000000  -0.000000
   32  S  2  Z    0.823827   0.010630   0.098906
   33  S  2 XX   -0.483796  -1.916003  -1.903238
   34  S  2 YY   -0.483796  -1.916003  -1.903238
   35  S  2 ZZ    0.828023  -1.842983  -1.992290
   36  S  2 XY    0.000000   0.000000  -0.000000
   37  S  2 XZ    0.000000   0.000000  -0.000000
   38  S  2 YZ    0.000000   0.000000  -0.000000

 LZ VALUE ANALYSIS FOR THE MOS
 ----------------------------------------
 MO     1 (    1) HAS LZ(WEIGHT)= 0.00(100.0%) 
 MO     2 (    2) HAS LZ(WEIGHT)= 0.00(100.0%) 
 MO     3 (    3) HAS LZ(WEIGHT)= 0.00(100.0%) 
 MO     4 (    4) HAS LZ(WEIGHT)= 0.00(100.0%) 
 MO     5 (    5) HAS LZ(WEIGHT)= 0.00(100.0%) 
 MO     6 (    6) HAS LZ(WEIGHT)= 0.00(100.0%) 
 MO     7 (    7) HAS LZ(WEIGHT)=-1.00( 50.0%)  1.00( 50.0%) 
 MO     8 (    7) HAS LZ(WEIGHT)=-1.00( 50.0%)  1.00( 50.0%) 
 MO     9 (    8) HAS LZ(WEIGHT)=-1.00( 50.0%)  1.00( 50.0%) 
 MO    10 (    8) HAS LZ(WEIGHT)=-1.00( 50.0%)  1.00( 50.0%) 
 MO    11 (    9) HAS LZ(WEIGHT)= 0.00(100.0%) 
 MO    12 (   10) HAS LZ(WEIGHT)= 0.00(100.0%) 
 MO    13 (   11) HAS LZ(WEIGHT)= 0.00(100.0%) 
 MO    14 (   12) HAS LZ(WEIGHT)=-1.00( 50.0%)  1.00( 50.0%) 
 MO    15 (   12) HAS LZ(WEIGHT)=-1.00( 50.0%)  1.00( 50.0%) 
 MO    16 (   13) HAS LZ(WEIGHT)=-1.00( 50.0%)  1.00( 50.0%) 
 MO    17 (   13) HAS LZ(WEIGHT)=-1.00( 50.0%)  1.00( 50.0%) 
 MO    18 (   14) HAS LZ(WEIGHT)= 0.00(100.0%) 
 MO    19 (   15) HAS LZ(WEIGHT)= 0.00(100.0%) 
 MO    20 (   16) HAS LZ(WEIGHT)= 0.00(100.0%) 
 MO    21 (   17) HAS LZ(WEIGHT)= 0.00(100.0%) 
 MO    22 (   18) HAS LZ(WEIGHT)=-1.00( 50.0%)  1.00( 50.0%) 
 MO    23 (   18) HAS LZ(WEIGHT)=-1.00( 50.0%)  1.00( 50.0%) 
 MO    24 (   19) HAS LZ(WEIGHT)=-1.00( 50.0%)  1.00( 50.0%) 
 MO    25 (   19) HAS LZ(WEIGHT)=-1.00( 50.0%)  1.00( 50.0%) 
 MO    26 (   20) HAS LZ(WEIGHT)= 0.00(100.0%) 
 MO    27 (   21) HAS LZ(WEIGHT)=-1.00( 50.0%)  1.00( 50.0%) 
 MO    28 (   21) HAS LZ(WEIGHT)=-1.00( 50.0%)  1.00( 50.0%) 
 MO    29 (   22) HAS LZ(WEIGHT)=-2.00( 50.0%)  2.00( 50.0%) 
 MO    30 (   22) HAS LZ(WEIGHT)=-2.00( 50.0%)  2.00( 50.0%) 
 MO    31 (   23) HAS LZ(WEIGHT)= 0.00(100.0%) 
 MO    32 (   24) HAS LZ(WEIGHT)=-2.00( 50.0%)  2.00( 50.0%) 
 MO    33 (   24) HAS LZ(WEIGHT)=-2.00( 50.0%)  2.00( 50.0%) 
 MO    34 (   25) HAS LZ(WEIGHT)=-1.00( 50.0%)  1.00( 50.0%) 
 MO    35 (   25) HAS LZ(WEIGHT)=-1.00( 50.0%)  1.00( 50.0%) 
 MO    36 (   26) HAS LZ(WEIGHT)= 0.00(100.0%) 
 MO    37 (   27) HAS LZ(WEIGHT)= 0.00(100.0%) 
 MO    38 (   28) HAS LZ(WEIGHT)= 0.00(100.0%) 

  ----- BETA SET ----- 

          ------------
          EIGENVECTORS
          ------------

                      1          2          3          4          5
                  -91.9997   -91.9997    -9.0095    -9.0091    -6.6946
                     A          A          A          A          A   
    1  S  1  S    0.704468   0.704477  -0.199261   0.199277   0.001211
    2  S  1  S    0.010020   0.010034   0.728570  -0.728786  -0.004627
    3  S  1  X   -0.000000   0.000000  -0.000000   0.000000   0.000000
    4  S  1  Y   -0.000000   0.000000  -0.000000   0.000000   0.000000
    5  S  1  Z   -0.000060  -0.000048  -0.003431   0.003295  -0.702211
    6  S  1  S   -0.014136  -0.013797   0.017016  -0.017058   0.003740
    7  S  1  X   -0.000000   0.000000  -0.000000   0.000000   0.000000
    8  S  1  Y   -0.000000   0.000000  -0.000000   0.000000   0.000000
    9  S  1  Z    0.000200  -0.000042  -0.000769   0.001337  -0.015441
   10  S  1  S    0.002608   0.001547  -0.003595   0.008086   0.000278
   11  S  1  X   -0.000000   0.000000  -0.000000   0.000000   0.000000
   12  S  1  Y   -0.000000   0.000000  -0.000000   0.000000   0.000000
   13  S  1  Z   -0.000552  -0.000033   0.000374  -0.002712   0.004078
   14  S  1 XX    0.004834   0.004824  -0.001480   0.001321  -0.001103
   15  S  1 YY    0.004834   0.004824  -0.001480   0.001321  -0.001103
   16  S  1 ZZ    0.004799   0.004852  -0.001210   0.000239  -0.001000
   17  S  1 XY   -0.000000   0.000000  -0.000000   0.000000   0.000000
   18  S  1 XZ   -0.000000   0.000000  -0.000000   0.000000   0.000000
   19  S  1 YZ   -0.000000   0.000000  -0.000000   0.000000   0.000000
   20  S  2  S   -0.704468   0.704477  -0.199261  -0.199277   0.001211
   21  S  2  S   -0.010020   0.010034   0.728570   0.728786  -0.004627
   22  S  2  X   -0.000000   0.000000  -0.000000   0.000000   0.000000
   23  S  2  Y   -0.000000   0.000000  -0.000000   0.000000   0.000000
   24  S  2  Z   -0.000060   0.000048   0.003431   0.003295   0.702211
   25  S  2  S    0.014136  -0.013797   0.017016   0.017058   0.003740
   26  S  2  X   -0.000000   0.000000  -0.000000   0.000000   0.000000
   27  S  2  Y   -0.000000   0.000000  -0.000000   0.000000   0.000000
   28  S  2  Z    0.000200   0.000042   0.000769   0.001337   0.015441
   29  S  2  S   -0.002608   0.001547  -0.003595  -0.008086   0.000278
   30  S  2  X   -0.000000   0.000000  -0.000000   0.000000   0.000000
   31  S  2  Y   -0.000000   0.000000  -0.000000   0.000000   0.000000
   32  S  2  Z   -0.000552   0.000033  -0.000374  -0.002712  -0.004078
   33  S  2 XX   -0.004834   0.004824  -0.001480  -0.001321  -0.001103
   34  S  2 YY   -0.004834   0.004824  -0.001480  -0.001321  -0.001103
   35  S  2 ZZ   -0.004799   0.004852  -0.001210  -0.000239  -0.001000
   36  S  2 XY   -0.000000   0.000000  -0.000000   0.000000   0.000000
   37  S  2 XZ   -0.000000   0.000000  -0.000000   0.000000   0.000000
   38  S  2 YZ   -0.000000   0.000000  -0.000000   0.000000   0.000000

                      6          7          8          9         10
                   -6.6938    -6.6808    -6.6808    -6.6807    -6.6807
                     A          A          A          A          A   
    1  S  1  S   -0.001115  -0.000000   0.000000  -0.000000   0.000000
    2  S  1  S    0.004213  -0.000000   0.000000  -0.000000   0.000000
    3  S  1  X    0.000000   0.563736  -0.419237  -0.670774   0.208611
    4  S  1  Y    0.000000   0.419237   0.563736  -0.208611  -0.670774
    5  S  1  Z    0.702258  -0.000000   0.000000  -0.000000   0.000000
    6  S  1  S   -0.003003  -0.000000   0.000000  -0.000000   0.000000
    7  S  1  X    0.000000   0.012156  -0.009040  -0.014868   0.004624
    8  S  1  Y    0.000000   0.009040   0.012156  -0.004624  -0.014868
    9  S  1  Z    0.017027  -0.000000   0.000000  -0.000000   0.000000
   10  S  1  S    0.002519  -0.000000   0.000000  -0.000000   0.000000
   11  S  1  X    0.000000  -0.002747   0.002043   0.004452  -0.001385
   12  S  1  Y    0.000000  -0.002043  -0.002747   0.001385   0.004452
   13  S  1  Z   -0.004808  -0.000000   0.000000  -0.000000   0.000000
   14  S  1 XX    0.001095  -0.000000   0.000000  -0.000000   0.000000
   15  S  1 YY    0.001095  -0.000000   0.000000  -0.000000   0.000000
   16  S  1 ZZ   -0.001014  -0.000000   0.000000  -0.000000   0.000000
   17  S  1 XY    0.000000  -0.000000   0.000000  -0.000000   0.000000
   18  S  1 XZ    0.000000  -0.000128   0.000095   0.000460  -0.000143
   19  S  1 YZ    0.000000  -0.000095  -0.000128   0.000143   0.000460
   20  S  2  S    0.001115  -0.000000   0.000000  -0.000000   0.000000
   21  S  2  S   -0.004213  -0.000000   0.000000  -0.000000   0.000000
   22  S  2  X    0.000000   0.563736  -0.419237   0.670774  -0.208611
   23  S  2  Y    0.000000   0.419237   0.563736   0.208611   0.670774
   24  S  2  Z    0.702258  -0.000000   0.000000  -0.000000   0.000000
   25  S  2  S    0.003003  -0.000000   0.000000  -0.000000   0.000000
   26  S  2  X    0.000000   0.012156  -0.009040   0.014868  -0.004624
   27  S  2  Y    0.000000   0.009040   0.012156   0.004624   0.014868
   28  S  2  Z    0.017027  -0.000000   0.000000  -0.000000   0.000000
   29  S  2  S   -0.002519  -0.000000   0.000000  -0.000000   0.000000
   30  S  2  X    0.000000  -0.002747   0.002043  -0.004452   0.001385
   31  S  2  Y    0.000000  -0.002043  -0.002747  -0.001385  -0.004452
   32  S  2  Z   -0.004808  -0.000000   0.000000  -0.000000   0.000000
   33  S  2 XX   -0.001095  -0.000000   0.000000  -0.000000   0.000000
   34  S  2 YY   -0.001095  -0.000000   0.000000  -0.000000   0.000000
   35  S  2 ZZ    0.001014  -0.000000   0.000000  -0.000000   0.000000
   36  S  2 XY    0.000000  -0.000000   0.000000  -0.000000   0.000000
   37  S  2 XZ    0.000000   0.000128  -0.000095   0.000460  -0.000143
   38  S  2 YZ    0.000000   0.000095   0.000128   0.000143   0.000460

                     11         12         13         14         15
                   -1.0458    -0.7342    -0.4953    -0.4010    -0.4010
                     A          A          A          A          A   
    1  S  1  S    0.050004  -0.054279   0.018260   0.000000   0.000000
    2  S  1  S   -0.230977   0.251112  -0.089424   0.000000   0.000000
    3  S  1  X    0.000000   0.000000   0.000000  -0.170274  -0.007953
    4  S  1  Y    0.000000   0.000000   0.000000   0.007953  -0.170274
    5  S  1  Z    0.072166   0.055688  -0.190705   0.000000   0.000000
    6  S  1  S    0.453344  -0.538694   0.190343   0.000000   0.000000
    7  S  1  X    0.000000   0.000000   0.000000   0.434896   0.020312
    8  S  1  Y    0.000000   0.000000   0.000000  -0.020312   0.434896
    9  S  1  Z   -0.170375  -0.140506   0.502764   0.000000   0.000000
   10  S  1  S    0.156146  -0.267285   0.201334   0.000000   0.000000
   11  S  1  X    0.000000   0.000000   0.000000   0.274686   0.012830
   12  S  1  Y    0.000000   0.000000   0.000000  -0.012830   0.274686
   13  S  1  Z   -0.011412  -0.046098   0.170839   0.000000   0.000000
   14  S  1 XX   -0.019264   0.002898   0.012855   0.000000   0.000000
   15  S  1 YY   -0.019264   0.002898   0.012855   0.000000   0.000000
   16  S  1 ZZ    0.061748  -0.000090  -0.059213   0.000000   0.000000
   17  S  1 XY    0.000000   0.000000   0.000000   0.000000   0.000000
   18  S  1 XZ    0.000000   0.000000   0.000000  -0.067002  -0.003129
   19  S  1 YZ    0.000000   0.000000   0.000000   0.003129  -0.067002
   20  S  2  S    0.050004   0.054279   0.018260   0.000000   0.000000
   21  S  2  S   -0.230977  -0.251112  -0.089424   0.000000   0.000000
   22  S  2  X    0.000000   0.000000   0.000000  -0.170274  -0.007953
   23  S  2  Y    0.000000   0.000000   0.000000   0.007953  -0.170274
   24  S  2  Z   -0.072166   0.055688   0.190705   0.000000   0.000000
   25  S  2  S    0.453344   0.538694   0.190343   0.000000   0.000000
   26  S  2  X    0.000000   0.000000   0.000000   0.434896   0.020312
   27  S  2  Y    0.000000   0.000000   0.000000  -0.020312   0.434896
   28  S  2  Z    0.170375  -0.140506  -0.502764   0.000000   0.000000
   29  S  2  S    0.156146   0.267285   0.201334   0.000000   0.000000
   30  S  2  X    0.000000   0.000000   0.000000   0.274686   0.012830
   31  S  2  Y    0.000000   0.000000   0.000000  -0.012830   0.274686
   32  S  2  Z    0.011412  -0.046098  -0.170839   0.000000   0.000000
   33  S  2 XX   -0.019264  -0.002898   0.012855   0.000000   0.000000
   34  S  2 YY   -0.019264  -0.002898   0.012855   0.000000   0.000000
   35  S  2 ZZ    0.061748   0.000090  -0.059213   0.000000   0.000000
   36  S  2 XY    0.000000   0.000000   0.000000   0.000000   0.000000
   37  S  2 XZ    0.000000   0.000000   0.000000   0.067002   0.003129
   38  S  2 YZ    0.000000   0.000000   0.000000  -0.003129   0.067002

                     16         17         18         19         20
                   -0.0031    -0.0031     0.1564     0.3757     0.4493
                     A          A          A          A          A   
    1  S  1  S    0.000000   0.000000  -0.025666   0.034278  -0.032002
    2  S  1  S    0.000000   0.000000   0.131481  -0.020750   0.073507
    3  S  1  X   -0.061441  -0.161637   0.000000  -0.000000   0.000000
    4  S  1  Y   -0.161637   0.061441   0.000000  -0.000000   0.000000
    5  S  1  Z    0.000000   0.000000  -0.133636   0.048742   0.133739
    6  S  1  S    0.000000   0.000000  -0.249181   0.801252  -0.623373
    7  S  1  X    0.156536   0.411811   0.000000  -0.000000   0.000000
    8  S  1  Y    0.411811  -0.156536   0.000000  -0.000000   0.000000
    9  S  1  Z    0.000000   0.000000   0.353671  -0.301523  -0.589296
   10  S  1  S    0.000000   0.000000  -1.178053  -0.772342   0.780467
   11  S  1  X    0.182824   0.480969   0.000000  -0.000000   0.000000
   12  S  1  Y    0.480969  -0.182824   0.000000  -0.000000   0.000000
   13  S  1  Z    0.000000   0.000000   1.272018   0.481158   0.763110
   14  S  1 XX    0.000000   0.000000  -0.029804  -0.037424  -0.069148
   15  S  1 YY    0.000000   0.000000  -0.029804  -0.037424  -0.069148
   16  S  1 ZZ    0.000000   0.000000   0.070612   0.286821   0.089159
   17  S  1 XY    0.000000   0.000000   0.000000  -0.000000   0.000000
   18  S  1 XZ    0.009076   0.023876   0.000000  -0.000000   0.000000
   19  S  1 YZ    0.023876  -0.009076   0.000000  -0.000000   0.000000
   20  S  2  S    0.000000   0.000000   0.025666   0.034278  -0.032002
   21  S  2  S    0.000000   0.000000  -0.131481  -0.020750   0.073507
   22  S  2  X    0.061441   0.161637   0.000000  -0.000000   0.000000
   23  S  2  Y    0.161637  -0.061441   0.000000  -0.000000   0.000000
   24  S  2  Z    0.000000   0.000000  -0.133636  -0.048742  -0.133739
   25  S  2  S    0.000000   0.000000   0.249181   0.801252  -0.623373
   26  S  2  X   -0.156536  -0.411811   0.000000  -0.000000   0.000000
   27  S  2  Y   -0.411811   0.156536   0.000000  -0.000000   0.000000
   28  S  2  Z    0.000000   0.000000   0.353671   0.301523   0.589296
   29  S  2  S    0.000000   0.000000   1.178053  -0.772342   0.780467
   30  S  2  X   -0.182824  -0.480969   0.000000  -0.000000   0.000000
   31  S  2  Y   -0.480969   0.182824   0.000000  -0.000000   0.000000
   32  S  2  Z    0.000000   0.000000   1.272018  -0.481158  -0.763110
   33  S  2 XX    0.000000   0.000000   0.029804  -0.037424  -0.069148
   34  S  2 YY    0.000000   0.000000   0.029804  -0.037424  -0.069148
   35  S  2 ZZ    0.000000   0.000000  -0.070612   0.286821   0.089159
   36  S  2 XY    0.000000   0.000000   0.000000  -0.000000   0.000000
   37  S  2 XZ    0.009076   0.023876   0.000000  -0.000000   0.000000
   38  S  2 YZ    0.023876  -0.009076   0.000000  -0.000000   0.000000

                     21         22         23         24         25
                    0.5192     0.5259     0.5259     0.5883     0.5883
                     A          A          A          A          A   
    1  S  1  S   -0.024551   0.000000  -0.000000  -0.000000  -0.000000
    2  S  1  S    0.008635   0.000000  -0.000000  -0.000000  -0.000000
    3  S  1  X    0.000000  -0.192231  -0.080160  -0.208109  -0.080064
    4  S  1  Y    0.000000   0.080160  -0.192231  -0.080064   0.208109
    5  S  1  Z    0.198898   0.000000  -0.000000  -0.000000  -0.000000
    6  S  1  S   -0.619239   0.000000  -0.000000  -0.000000  -0.000000
    7  S  1  X    0.000000   0.778922   0.324808   0.837968   0.322384
    8  S  1  Y    0.000000  -0.324808   0.778922   0.322384  -0.837968
    9  S  1  Z   -0.762233   0.000000  -0.000000  -0.000000  -0.000000
   10  S  1  S    0.848746   0.000000  -0.000000  -0.000000  -0.000000
   11  S  1  X    0.000000  -0.685747  -0.285954  -1.049397  -0.403725
   12  S  1  Y    0.000000   0.285954  -0.685747  -0.403725   1.049397
   13  S  1  Z    0.484773   0.000000  -0.000000  -0.000000  -0.000000
   14  S  1 XX    0.013100   0.000000  -0.000000  -0.000000  -0.000000
   15  S  1 YY    0.013100   0.000000  -0.000000  -0.000000  -0.000000
   16  S  1 ZZ   -0.133068   0.000000  -0.000000  -0.000000  -0.000000
   17  S  1 XY    0.000000   0.000000  -0.000000  -0.000000  -0.000000
   18  S  1 XZ    0.000000  -0.089053  -0.037135  -0.035759  -0.013757
   19  S  1 YZ    0.000000   0.037135  -0.089053  -0.013757   0.035759
   20  S  2  S    0.024551   0.000000  -0.000000  -0.000000  -0.000000
   21  S  2  S   -0.008635   0.000000  -0.000000  -0.000000  -0.000000
   22  S  2  X    0.000000  -0.192231  -0.080160   0.208109   0.080064
   23  S  2  Y    0.000000   0.080160  -0.192231   0.080064  -0.208109
   24  S  2  Z    0.198898   0.000000  -0.000000  -0.000000  -0.000000
   25  S  2  S    0.619239   0.000000  -0.000000  -0.000000  -0.000000
   26  S  2  X    0.000000   0.778922   0.324808  -0.837968  -0.322384
   27  S  2  Y    0.000000  -0.324808   0.778922  -0.322384   0.837968
   28  S  2  Z   -0.762233   0.000000  -0.000000  -0.000000  -0.000000
   29  S  2  S   -0.848746   0.000000  -0.000000  -0.000000  -0.000000
   30  S  2  X    0.000000  -0.685747  -0.285954   1.049397   0.403725
   31  S  2  Y    0.000000   0.285954  -0.685747   0.403725  -1.049397
   32  S  2  Z    0.484773   0.000000  -0.000000  -0.000000  -0.000000
   33  S  2 XX   -0.013100   0.000000  -0.000000  -0.000000  -0.000000
   34  S  2 YY   -0.013100   0.000000  -0.000000  -0.000000  -0.000000
   35  S  2 ZZ    0.133068   0.000000  -0.000000  -0.000000  -0.000000
   36  S  2 XY    0.000000   0.000000  -0.000000  -0.000000  -0.000000
   37  S  2 XZ    0.000000   0.089053   0.037135  -0.035759  -0.013757
   38  S  2 YZ    0.000000  -0.037135   0.089053  -0.013757   0.035759

                     26         27         28         29         30
                    0.6746     0.8527     0.8527     1.0120     1.0120
                     A          A          A          A          A   
    1  S  1  S    0.044398  -0.000000   0.000000   0.000000   0.000000
    2  S  1  S   -0.001132  -0.000000   0.000000   0.000000   0.000000
    3  S  1  X    0.000000   0.003759   0.056163   0.000000   0.000000
    4  S  1  Y    0.000000  -0.056163   0.003759   0.000000   0.000000
    5  S  1  Z    0.150438  -0.000000   0.000000   0.000000   0.000000
    6  S  1  S    1.162133  -0.000000   0.000000   0.000000   0.000000
    7  S  1  X    0.000000  -0.012633  -0.188750   0.000000   0.000000
    8  S  1  Y    0.000000   0.188750  -0.012633   0.000000   0.000000
    9  S  1  Z   -0.585335  -0.000000   0.000000   0.000000   0.000000
   10  S  1  S   -3.537558  -0.000000   0.000000   0.000000   0.000000
   11  S  1  X    0.000000   0.002852   0.042610   0.000000   0.000000
   12  S  1  Y    0.000000  -0.042610   0.002852   0.000000   0.000000
   13  S  1  Z    2.136021  -0.000000   0.000000   0.000000   0.000000
   14  S  1 XX    0.069553  -0.000000   0.000000  -0.608202  -0.000000
   15  S  1 YY    0.069553  -0.000000   0.000000   0.608202   0.000000
   16  S  1 ZZ    0.052028  -0.000000   0.000000   0.000000   0.000000
   17  S  1 XY    0.000000  -0.000000   0.000000  -0.000000   0.702291
   18  S  1 XZ    0.000000  -0.044421  -0.663677   0.000000   0.000000
   19  S  1 YZ    0.000000   0.663677  -0.044421   0.000000   0.000000
   20  S  2  S   -0.044398  -0.000000   0.000000   0.000000   0.000000
   21  S  2  S    0.001132  -0.000000   0.000000   0.000000   0.000000
   22  S  2  X    0.000000   0.003759   0.056163   0.000000   0.000000
   23  S  2  Y    0.000000  -0.056163   0.003759   0.000000   0.000000
   24  S  2  Z    0.150438  -0.000000   0.000000   0.000000   0.000000
   25  S  2  S   -1.162133  -0.000000   0.000000   0.000000   0.000000
   26  S  2  X    0.000000  -0.012633  -0.188750   0.000000   0.000000
   27  S  2  Y    0.000000   0.188750  -0.012633   0.000000   0.000000
   28  S  2  Z   -0.585335  -0.000000   0.000000   0.000000   0.000000
   29  S  2  S    3.537558  -0.000000   0.000000   0.000000   0.000000
   30  S  2  X    0.000000   0.002852   0.042610   0.000000   0.000000
   31  S  2  Y    0.000000  -0.042610   0.002852   0.000000   0.000000
   32  S  2  Z    2.136021  -0.000000   0.000000   0.000000   0.000000
   33  S  2 XX   -0.069553  -0.000000   0.000000  -0.608202  -0.000000
   34  S  2 YY   -0.069553  -0.000000   0.000000   0.608202   0.000000
   35  S  2 ZZ   -0.052028  -0.000000   0.000000   0.000000   0.000000
   36  S  2 XY    0.000000  -0.000000   0.000000  -0.000000   0.702291
   37  S  2 XZ    0.000000   0.044421   0.663677   0.000000   0.000000
   38  S  2 YZ    0.000000  -0.663677   0.044421   0.000000   0.000000

                     31         32         33         34         35
                    1.0466     1.0915     1.0915     1.2560     1.2560
                     A          A          A          A          A   
    1  S  1  S   -0.019220  -0.000000   0.000000   0.000000   0.000000
    2  S  1  S    0.032890  -0.000000   0.000000   0.000000   0.000000
    3  S  1  X    0.000000  -0.000000   0.000000  -0.000113  -0.001414
    4  S  1  Y    0.000000  -0.000000   0.000000  -0.001414   0.000113
    5  S  1  Z   -0.110158  -0.000000   0.000000   0.000000   0.000000
    6  S  1  S   -0.433437  -0.000000   0.000000   0.000000   0.000000
    7  S  1  X    0.000000  -0.000000   0.000000   0.003341   0.041949
    8  S  1  Y    0.000000  -0.000000   0.000000   0.041949  -0.003341
    9  S  1  Z    0.487656  -0.000000   0.000000   0.000000   0.000000
   10  S  1  S    0.206644  -0.000000   0.000000   0.000000   0.000000
   11  S  1  X    0.000000  -0.000000   0.000000  -0.018530  -0.232657
   12  S  1  Y    0.000000  -0.000000   0.000000  -0.232657   0.018530
   13  S  1  Z   -0.462324  -0.000000   0.000000   0.000000   0.000000
   14  S  1 XX   -0.312106  -0.000000  -0.616630   0.000000   0.000000
   15  S  1 YY   -0.312106   0.000000   0.616630   0.000000   0.000000
   16  S  1 ZZ    0.615563  -0.000000   0.000000   0.000000   0.000000
   17  S  1 XY    0.000000   0.712023  -0.000000   0.000000   0.000000
   18  S  1 XZ    0.000000  -0.000000   0.000000   0.059912   0.752261
   19  S  1 YZ    0.000000  -0.000000   0.000000   0.752261  -0.059912
   20  S  2  S   -0.019220  -0.000000   0.000000   0.000000   0.000000
   21  S  2  S    0.032890  -0.000000   0.000000   0.000000   0.000000
   22  S  2  X    0.000000  -0.000000   0.000000   0.000113   0.001414
   23  S  2  Y    0.000000  -0.000000   0.000000   0.001414  -0.000113
   24  S  2  Z    0.110158  -0.000000   0.000000   0.000000   0.000000
   25  S  2  S   -0.433437  -0.000000   0.000000   0.000000   0.000000
   26  S  2  X    0.000000  -0.000000   0.000000  -0.003341  -0.041949
   27  S  2  Y    0.000000  -0.000000   0.000000  -0.041949   0.003341
   28  S  2  Z   -0.487656  -0.000000   0.000000   0.000000   0.000000
   29  S  2  S    0.206644  -0.000000   0.000000   0.000000   0.000000
   30  S  2  X    0.000000  -0.000000   0.000000   0.018530   0.232657
   31  S  2  Y    0.000000  -0.000000   0.000000   0.232657  -0.018530
   32  S  2  Z    0.462324  -0.000000   0.000000   0.000000   0.000000
   33  S  2 XX   -0.312106   0.000000   0.616630   0.000000   0.000000
   34  S  2 YY   -0.312106  -0.000000  -0.616630   0.000000   0.000000
   35  S  2 ZZ    0.615563  -0.000000   0.000000   0.000000   0.000000
   36  S  2 XY    0.000000  -0.712023   0.000000   0.000000   0.000000
   37  S  2 XZ    0.000000  -0.000000   0.000000   0.059912   0.752261
   38  S  2 YZ    0.000000  -0.000000   0.000000   0.752261  -0.059912

                     36         37         38
                    1.5963     4.1815     4.3507
                     A          A          A   
    1  S  1  S   -0.003674   0.119829  -0.118847
    2  S  1  S    0.088256  -0.551436   0.542437
    3  S  1  X    0.000000   0.000000  -0.000000
    4  S  1  Y    0.000000   0.000000  -0.000000
    5  S  1  Z   -0.098884   0.010461   0.019077
    6  S  1  S    0.132086   4.466250  -4.558414
    7  S  1  X    0.000000   0.000000  -0.000000
    8  S  1  Y    0.000000   0.000000  -0.000000
    9  S  1  Z    0.355238   0.008993  -0.034020
   10  S  1  S   -1.435682  -0.200936   0.087988
   11  S  1  X    0.000000   0.000000  -0.000000
   12  S  1  Y    0.000000   0.000000  -0.000000
   13  S  1  Z    0.808017  -0.010479   0.094944
   14  S  1 XX    0.482617  -1.916429   1.903535
   15  S  1 YY    0.482617  -1.916429   1.903535
   16  S  1 ZZ   -0.829869  -1.841653   1.991225
   17  S  1 XY    0.000000   0.000000  -0.000000
   18  S  1 XZ    0.000000   0.000000  -0.000000
   19  S  1 YZ    0.000000   0.000000  -0.000000
   20  S  2  S    0.003674   0.119829   0.118847
   21  S  2  S   -0.088256  -0.551436  -0.542437
   22  S  2  X    0.000000   0.000000  -0.000000
   23  S  2  Y    0.000000   0.000000  -0.000000
   24  S  2  Z   -0.098884  -0.010461   0.019077
   25  S  2  S   -0.132086   4.466250   4.558414
   26  S  2  X    0.000000   0.000000  -0.000000
   27  S  2  Y    0.000000   0.000000  -0.000000
   28  S  2  Z    0.355238  -0.008993  -0.034020
   29  S  2  S    1.435682  -0.200936  -0.087988
   30  S  2  X    0.000000   0.000000  -0.000000
   31  S  2  Y    0.000000   0.000000  -0.000000
   32  S  2  Z    0.808017   0.010479   0.094944
   33  S  2 XX   -0.482617  -1.916429  -1.903535
   34  S  2 YY   -0.482617  -1.916429  -1.903535
   35  S  2 ZZ    0.829869  -1.841653  -1.991225
   36  S  2 XY    0.000000   0.000000  -0.000000
   37  S  2 XZ    0.000000   0.000000  -0.000000
   38  S  2 YZ    0.000000   0.000000  -0.000000
 ...... END OF UHF CALCULATION ......
 STEP CPU TIME =     0.01 TOTAL CPU TIME =          0.0 (      0.0 MIN)
 TOTAL WALL CLOCK TIME=          0.0 SECONDS, CPU UTILIZATION IS    97.99%

     ----------------------------------------------------------------
     PROPERTY VALUES FOR THE UHF   SELF-CONSISTENT FIELD WAVEFUNCTION
     ----------------------------------------------------------------

          -----------------
          ENERGY COMPONENTS
          -----------------

         WAVEFUNCTION NORMALIZATION =       1.0000000000

                ONE ELECTRON ENERGY =   -1239.1386940319
                TWO ELECTRON ENERGY =     373.6282378576
           NUCLEAR REPULSION ENERGY =      70.4951445266
                                      ------------------
                       TOTAL ENERGY =    -795.0153116478

 ELECTRON-ELECTRON POTENTIAL ENERGY =     373.6282378576
  NUCLEUS-ELECTRON POTENTIAL ENERGY =   -2033.8389608520
   NUCLEUS-NUCLEUS POTENTIAL ENERGY =      70.4951445266
                                      ------------------
             TOTAL POTENTIAL ENERGY =   -1589.7155784679
               TOTAL KINETIC ENERGY =     794.7002668201
                 VIRIAL RATIO (V/T) =       2.0003964323

  ...... PI ENERGY ANALYSIS ......

 ENERGY ANALYSIS:
            FOCK ENERGY=   -491.8822178142
          BARE H ENERGY=  -1239.1386940319
     ELECTRONIC ENERGY =   -865.5104559231
         KINETIC ENERGY=    794.7002668201
          N-N REPULSION=     70.4951445266
           TOTAL ENERGY=   -795.0153113965
        SIGMA PART(1+2)=   -662.9569245050
               (K,V1,2)=    643.3800371868  -1533.6222792269    227.2853175351
           PI PART(1+2)=   -202.5535314181
               (K,V1,2)=    151.3202296333   -500.2166816252    146.3429205738
  SIGMA SKELETON, ERROR=   -592.4617799785     -0.0000000000
             MIXED PART= 0.00000E+00 0.00000E+00 0.00000E+00 0.00000E+00
 ...... END OF PI ENERGY ANALYSIS ......

          ---------------------------------------
          MULLIKEN AND LOWDIN POPULATION ANALYSES
          ---------------------------------------

     ATOMIC MULLIKEN POPULATION IN EACH MOLECULAR ORBITAL
        ALPHA ORBITALS

                      1          2          3          4          5

                  1.000000   1.000000   1.000000   1.000000   1.000000

    1             0.500000   0.500000   0.500000   0.500000   0.500000
    2             0.500000   0.500000   0.500000   0.500000   0.500000

                      6          7          8          9         10

                  1.000000   1.000000   1.000000   1.000000   1.000000

    1             0.500000   0.500000   0.500000   0.500000   0.500000
    2             0.500000   0.500000   0.500000   0.500000   0.500000

                     11         12         13         14         15

                  1.000000   1.000000   1.000000   1.000000   1.000000

    1             0.500000   0.500000   0.500000   0.500000   0.500000
    2             0.500000   0.500000   0.500000   0.500000   0.500000

                     16         17

                  1.000000   1.000000

    1             0.500000   0.500000
    2             0.500000   0.500000

     ATOMIC MULLIKEN POPULATION IN EACH MOLECULAR ORBITAL
         BETA ORBITALS

                      1          2          3          4          5

                  1.000000   1.000000   1.000000   1.000000   1.000000

    1             0.500000   0.500000   0.500000   0.500000   0.500000
    2             0.500000   0.500000   0.500000   0.500000   0.500000

                      6          7          8          9         10

                  1.000000   1.000000   1.000000   1.000000   1.000000

    1             0.500000   0.500000   0.500000   0.500000   0.500000
    2             0.500000   0.500000   0.500000   0.500000   0.500000

                     11         12         13         14         15

                  1.000000   1.000000   1.000000   1.000000   1.000000

    1             0.500000   0.500000   0.500000   0.500000   0.500000
    2             0.500000   0.500000   0.500000   0.500000   0.500000

     ATOMIC SPIN POPULATION (ALPHA MINUS BETA)
       ATOM         MULL.POP.                    LOW.POP.
    1 S             1.000000                     1.000000
    2 S             1.000000                     1.000000


          ********* ALL ELECTRONS ********

               ----- POPULATIONS IN EACH AO -----
                             MULLIKEN      LOWDIN
              1  S  1  S      1.99891     1.99863
              2  S  1  S      1.99888     1.98454
              3  S  1  X      1.99281     1.96756
              4  S  1  Y      1.99281     1.96756
              5  S  1  Z      1.99148     1.96243
              6  S  1  S      1.34571     0.61592
              7  S  1  X      0.97872     0.92370
              8  S  1  Y      0.97872     0.92370
              9  S  1  Z      0.86929     0.79764
             10  S  1  S      0.57465     0.48216
             11  S  1  X      0.51334     0.59183
             12  S  1  Y      0.51334     0.59183
             13  S  1  Z      0.17079     0.37711
             14  S  1 XX      0.00274     0.25219
             15  S  1 YY      0.00274     0.25219
             16  S  1 ZZ      0.04480     0.27719
             17  S  1 XY      0.00000     0.00000
             18  S  1 XZ      0.01513     0.01690
             19  S  1 YZ      0.01513     0.01690
             20  S  2  S      1.99891     1.99863
             21  S  2  S      1.99888     1.98454
             22  S  2  X      1.99281     1.96756
             23  S  2  Y      1.99281     1.96756
             24  S  2  Z      1.99148     1.96243
             25  S  2  S      1.34571     0.61592
             26  S  2  X      0.97872     0.92370
             27  S  2  Y      0.97872     0.92370
             28  S  2  Z      0.86929     0.79764
             29  S  2  S      0.57465     0.48216
             30  S  2  X      0.51334     0.59183
             31  S  2  Y      0.51334     0.59183
             32  S  2  Z      0.17079     0.37711
             33  S  2 XX      0.00274     0.25219
             34  S  2 YY      0.00274     0.25219
             35  S  2 ZZ      0.04480     0.27719
             36  S  2 XY      0.00000     0.00000
             37  S  2 XZ      0.01513     0.01690
             38  S  2 YZ      0.01513     0.01690

          ----- MULLIKEN ATOMIC OVERLAP POPULATIONS -----
          (OFF-DIAGONAL ELEMENTS NEED TO BE MULTIPLIED BY 2)

             1           2

    1   15.8228339
    2    0.1771661  15.8228339

          TOTAL MULLIKEN AND LOWDIN ATOMIC POPULATIONS
       ATOM         MULL.POP.    CHARGE          LOW.POP.     CHARGE
    1 S            16.000000   -0.000000        16.000000   -0.000000
    2 S            16.000000   -0.000000        16.000000   -0.000000

          -------------------------------
          BOND ORDER AND VALENCE ANALYSIS     BOND ORDER THRESHOLD=0.050
          -------------------------------

                   BOND                       BOND                       BOND
  ATOM PAIR DIST  ORDER      ATOM PAIR DIST  ORDER      ATOM PAIR DIST  ORDER
    1   2  1.922  1.832

                       TOTAL       BONDED        FREE
      ATOM            VALENCE     VALENCE     VALENCE
    1 S                 2.412       1.832       0.580
    2 S                 2.412       1.832       0.580

          -----------------------------------------
          ATOMIC SPIN DENSITY AT THE NUCLEUS (A.U.)
          -----------------------------------------
                            SPIN DENS    ALPHA DENS     BETA DENS
    1  S           16.0     0.2359830    1252.64216    1252.40618
    2  S           16.0     0.2359830    1252.64216    1252.40618

          ---------------------
          ELECTROSTATIC MOMENTS
          ---------------------

 POINT   1           X           Y           Z (BOHR)    CHARGE
                 0.000000    0.000000    0.000000       -0.00 (A.U.)
         DX          DY          DZ         /D/  (DEBYE)
     0.000000    0.000000    0.000000    0.000000
 ...... END OF PROPERTY EVALUATION ......
 STEP CPU TIME =     0.00 TOTAL CPU TIME =          0.0 (      0.0 MIN)
 TOTAL WALL CLOCK TIME=          0.0 SECONDS, CPU UTILIZATION IS    98.09%

 BEGINNING ONE ELECTRON GRADIENT...
 ..... END OF 1-ELECTRON GRADIENT ......
 STEP CPU TIME =     0.00 TOTAL CPU TIME =          0.0 (      0.0 MIN)
 TOTAL WALL CLOCK TIME=          0.0 SECONDS, CPU UTILIZATION IS    98.15%

          ----------------------
          GRADIENT OF THE ENERGY
          ----------------------

 THE MINIMUM MEMORY REQUIRED FOR THIS RUN IS      79013 WORDS.
 USING     993563 WORDS FOR 2E- DERIVATIVE INTEGRAL CONTRIBUTIONS.
 THE COARSE/FINE SCHWARZ SCREENINGS SKIPPED            0/           0 BLOCKS.
 THE NUMBER OF GRADIENT INTEGRAL BLOCKS COMPUTED WAS      1270
 ...... END OF 2-ELECTRON GRADIENT ......
 STEP CPU TIME =     0.05 TOTAL CPU TIME =          0.1 (      0.0 MIN)
 TOTAL WALL CLOCK TIME=          0.1 SECONDS, CPU UTILIZATION IS    99.26%

          NSERCH=  0     ENERGY=    -795.0153116

                                 -----------------------
                                 GRADIENT (HARTREE/BOHR)
                                 -----------------------
        ATOM     ZNUC       DE/DX         DE/DY         DE/DZ
 --------------------------------------------------------------
    1  S           16.0     0.0000000     0.0000000     0.0297824
    2  S           16.0     0.0000000     0.0000000    -0.0297824

          MAXIMUM GRADIENT = 0.0297824    RMS GRADIENT = 0.0171949

 NSERCH:   0  E=     -795.0153116478  GRAD. MAX=  0.0297824  R.M.S.=  0.0171949

          FORCE CONSTANT MATRIX NOT UPDATED --- TAKING FIRST STEP
          MIN SEARCH, CORRECT HESSIAN, TRYING PURE NR STEP
               NR STEP HAS LENGTH         =   0.042989
          RADIUS OF STEP TAKEN=   0.04299  CURRENT TRUST RADIUS=   0.30000

 BEGINNING GEOMETRY SEARCH POINT NSERCH=   1 ...

 COORDINATES OF ALL ATOMS ARE (ANGS)
   ATOM   CHARGE       X              Y              Z
 ------------------------------------------------------------
 S          16.0   0.0000000000   0.0000000000   0.9447559653
 S          16.0   0.0000000000   0.0000000000  -0.9447559653

          INTERNUCLEAR DISTANCES (ANGS.)
          ------------------------------

                1 S          2 S     

[...]
   33  S  2 XX    0.001134   0.000000   0.000000   0.000000   0.000000
   34  S  2 YY    0.001134   0.000000   0.000000   0.000000   0.000000
   35  S  2 ZZ   -0.001099   0.000000   0.000000   0.000000   0.000000
   36  S  2 XY    0.000000   0.000000   0.000000   0.000000   0.000000
   37  S  2 XZ    0.000000   0.000166   0.000016  -0.000536  -0.000065
   38  S  2 YZ    0.000000  -0.000016   0.000166   0.000065  -0.000536

                     11         12         13         14         15
                   -1.0616    -0.7284    -0.4981    -0.4096    -0.4096
                     A          A          A          A          A   
    1  S  1  S   -0.050020  -0.054013   0.018474   0.000000   0.000000
    2  S  1  S    0.230827   0.249943  -0.091011   0.000000   0.000000
    3  S  1  X    0.000000   0.000000   0.000000  -0.157179   0.068869
    4  S  1  Y    0.000000   0.000000   0.000000   0.068869   0.157179
    5  S  1  Z   -0.076608   0.058276  -0.191482   0.000000   0.000000
    6  S  1  S   -0.452222  -0.535733   0.189583   0.000000   0.000000
    7  S  1  X    0.000000   0.000000   0.000000   0.401918  -0.176105
    8  S  1  Y    0.000000   0.000000   0.000000  -0.176105  -0.401918
    9  S  1  Z    0.178731  -0.146506   0.503445   0.000000   0.000000
   10  S  1  S   -0.148628  -0.269688   0.211108   0.000000   0.000000
   11  S  1  X    0.000000   0.000000   0.000000   0.244792  -0.107258
   12  S  1  Y    0.000000   0.000000   0.000000  -0.107258  -0.244792
   13  S  1  Z    0.009207  -0.047573   0.165534   0.000000   0.000000
   14  S  1 XX    0.019940   0.002237   0.013438   0.000000   0.000000
   15  S  1 YY    0.019940   0.002237   0.013438   0.000000   0.000000
   16  S  1 ZZ   -0.062949   0.000129  -0.058653   0.000000   0.000000
   17  S  1 XY    0.000000   0.000000   0.000000   0.000000   0.000000
   18  S  1 XZ    0.000000   0.000000   0.000000  -0.065612   0.028749
   19  S  1 YZ    0.000000   0.000000   0.000000   0.028749   0.065612
   20  S  2  S   -0.050020   0.054013   0.018474   0.000000   0.000000
   21  S  2  S    0.230827  -0.249943  -0.091011   0.000000   0.000000
   22  S  2  X    0.000000   0.000000   0.000000  -0.157179   0.068869
   23  S  2  Y    0.000000   0.000000   0.000000   0.068869   0.157179
   24  S  2  Z    0.076608   0.058276   0.191482   0.000000   0.000000
   25  S  2  S   -0.452222   0.535733   0.189583   0.000000   0.000000
   26  S  2  X    0.000000   0.000000   0.000000   0.401918  -0.176105
   27  S  2  Y    0.000000   0.000000   0.000000  -0.176105  -0.401918
   28  S  2  Z   -0.178731  -0.146506  -0.503445   0.000000   0.000000
   29  S  2  S   -0.148628   0.269688   0.211108   0.000000   0.000000
   30  S  2  X    0.000000   0.000000   0.000000   0.244792  -0.107258
   31  S  2  Y    0.000000   0.000000   0.000000  -0.107258  -0.244792
   32  S  2  Z   -0.009207  -0.047573  -0.165534   0.000000   0.000000
   33  S  2 XX    0.019940  -0.002237   0.013438   0.000000   0.000000
   34  S  2 YY    0.019940  -0.002237   0.013438   0.000000   0.000000
   35  S  2 ZZ   -0.062949  -0.000129  -0.058653   0.000000   0.000000
   36  S  2 XY    0.000000   0.000000   0.000000   0.000000   0.000000
   37  S  2 XZ    0.000000   0.000000   0.000000   0.065612  -0.028749
   38  S  2 YZ    0.000000   0.000000   0.000000  -0.028749  -0.065612

                     16         17         18         19         20
                    0.0033     0.0033     0.1696     0.3652     0.4487
                     A          A          A          A          A   
    1  S  1  S    0.000000   0.000000   0.026073  -0.031959   0.034021
    2  S  1  S    0.000000   0.000000  -0.134223   0.013864  -0.074776
    3  S  1  X    0.027349   0.170182   0.000000   0.000000   0.000000
    4  S  1  Y   -0.170182   0.027349   0.000000   0.000000   0.000000
    5  S  1  Z    0.000000   0.000000   0.125810  -0.052374  -0.130535
    6  S  1  S    0.000000   0.000000   0.252278  -0.764753   0.668585
    7  S  1  X   -0.069715  -0.433802   0.000000   0.000000   0.000000
    8  S  1  Y    0.433802  -0.069715   0.000000   0.000000   0.000000
    9  S  1  Z    0.000000   0.000000  -0.333377   0.319025   0.566334
   10  S  1  S    0.000000   0.000000   1.325943   0.715728  -0.827304
   11  S  1  X   -0.083605  -0.520232   0.000000   0.000000   0.000000
   12  S  1  Y    0.520232  -0.083605   0.000000   0.000000   0.000000
   13  S  1  Z    0.000000   0.000000  -1.362491  -0.535978  -0.737200
   14  S  1 XX    0.000000   0.000000   0.031193   0.041031   0.065305
   15  S  1 YY    0.000000   0.000000   0.031193   0.041031   0.065305
   16  S  1 ZZ    0.000000   0.000000  -0.073885  -0.281123  -0.063822
   17  S  1 XY    0.000000   0.000000   0.000000   0.000000   0.000000
   18  S  1 XZ   -0.004245  -0.026416   0.000000   0.000000   0.000000
   19  S  1 YZ    0.026416  -0.004245   0.000000   0.000000   0.000000
   20  S  2  S    0.000000   0.000000  -0.026073  -0.031959   0.034021
   21  S  2  S    0.000000   0.000000   0.134223   0.013864  -0.074776
   22  S  2  X   -0.027349  -0.170182   0.000000   0.000000   0.000000
   23  S  2  Y    0.170182  -0.027349   0.000000   0.000000   0.000000
   24  S  2  Z    0.000000   0.000000   0.125810   0.052374   0.130535
   25  S  2  S    0.000000   0.000000  -0.252278  -0.764753   0.668585
   26  S  2  X    0.069715   0.433802   0.000000   0.000000   0.000000
   27  S  2  Y   -0.433802   0.069715   0.000000   0.000000   0.000000
   28  S  2  Z    0.000000   0.000000  -0.333377  -0.319025  -0.566334
   29  S  2  S    0.000000   0.000000  -1.325943   0.715728  -0.827304
   30  S  2  X    0.083605   0.520232   0.000000   0.000000   0.000000
   31  S  2  Y   -0.520232   0.083605   0.000000   0.000000   0.000000
   32  S  2  Z    0.000000   0.000000  -1.362491   0.535978   0.737200
   33  S  2 XX    0.000000   0.000000  -0.031193   0.041031   0.065305
   34  S  2 YY    0.000000   0.000000  -0.031193   0.041031   0.065305
   35  S  2 ZZ    0.000000   0.000000   0.073885  -0.281123  -0.063822
   36  S  2 XY    0.000000   0.000000   0.000000   0.000000   0.000000
   37  S  2 XZ   -0.004245  -0.026416   0.000000   0.000000   0.000000
   38  S  2 YZ    0.026416  -0.004245   0.000000   0.000000   0.000000

                     21         22         23         24         25
                    0.5205     0.5205     0.5260     0.5909     0.5909
                     A          A          A          A          A   
    1  S  1  S    0.000000   0.000000   0.024555   0.000000   0.000000
    2  S  1  S    0.000000   0.000000  -0.004684   0.000000   0.000000
    3  S  1  X   -0.008363  -0.203970   0.000000  -0.120804   0.188745
    4  S  1  Y    0.203970  -0.008363   0.000000  -0.188745  -0.120804
    5  S  1  Z    0.000000   0.000000  -0.198192   0.000000   0.000000
    6  S  1  S    0.000000   0.000000   0.629978   0.000000   0.000000
    7  S  1  X    0.034055   0.830584   0.000000   0.485876  -0.759134
    8  S  1  Y   -0.830584   0.034055   0.000000   0.759134   0.485876
    9  S  1  Z    0.000000   0.000000   0.762172   0.000000   0.000000
   10  S  1  S    0.000000   0.000000  -0.965291   0.000000   0.000000
   11  S  1  X   -0.030362  -0.740528   0.000000  -0.613040   0.957815
   12  S  1  Y    0.740528  -0.030362   0.000000  -0.957815  -0.613040
   13  S  1  Z    0.000000   0.000000  -0.402500   0.000000   0.000000
   14  S  1 XX    0.000000   0.000000  -0.015023   0.000000   0.000000
   15  S  1 YY    0.000000   0.000000  -0.015023   0.000000   0.000000
   16  S  1 ZZ    0.000000   0.000000   0.142768   0.000000   0.000000
   17  S  1 XY    0.000000   0.000000   0.000000   0.000000   0.000000
   18  S  1 XZ   -0.004751  -0.115881   0.000000  -0.017902   0.027970
   19  S  1 YZ    0.115881  -0.004751   0.000000  -0.027970  -0.017902
   20  S  2  S    0.000000   0.000000  -0.024555   0.000000   0.000000
   21  S  2  S    0.000000   0.000000   0.004684   0.000000   0.000000
   22  S  2  X   -0.008363  -0.203970   0.000000   0.120804  -0.188745
   23  S  2  Y    0.203970  -0.008363   0.000000   0.188745   0.120804
   24  S  2  Z    0.000000   0.000000  -0.198192   0.000000   0.000000
   25  S  2  S    0.000000   0.000000  -0.629978   0.000000   0.000000
   26  S  2  X    0.034055   0.830584   0.000000  -0.485876   0.759134
   27  S  2  Y   -0.830584   0.034055   0.000000  -0.759134  -0.485876
   28  S  2  Z    0.000000   0.000000   0.762172   0.000000   0.000000
   29  S  2  S    0.000000   0.000000   0.965291   0.000000   0.000000
   30  S  2  X   -0.030362  -0.740528   0.000000   0.613040  -0.957815
   31  S  2  Y    0.740528  -0.030362   0.000000   0.957815   0.613040
   32  S  2  Z    0.000000   0.000000  -0.402500   0.000000   0.000000
   33  S  2 XX    0.000000   0.000000   0.015023   0.000000   0.000000
   34  S  2 YY    0.000000   0.000000   0.015023   0.000000   0.000000
   35  S  2 ZZ    0.000000   0.000000  -0.142768   0.000000   0.000000
   36  S  2 XY    0.000000   0.000000   0.000000   0.000000   0.000000
   37  S  2 XZ    0.004751   0.115881   0.000000  -0.017902   0.027970
   38  S  2 YZ   -0.115881   0.004751   0.000000  -0.027970  -0.017902

                     26         27
                    0.6864     0.8439
                     A          A   
    1  S  1  S    0.044960   0.000000
    2  S  1  S   -0.003078   0.000000
    3  S  1  X    0.000000  -0.031038
    4  S  1  Y    0.000000  -0.058007
    5  S  1  Z    0.155294   0.000000
    6  S  1  S    1.171676   0.000000
    7  S  1  X    0.000000   0.106876
    8  S  1  Y    0.000000   0.199743
    9  S  1  Z   -0.602117   0.000000
   10  S  1  S   -3.718061   0.000000
   11  S  1  X    0.000000  -0.032182
   12  S  1  Y    0.000000  -0.060146
   13  S  1  Z    2.217378   0.000000
   14  S  1 XX    0.079586   0.000000
   15  S  1 YY    0.079586   0.000000
   16  S  1 ZZ    0.032483   0.000000
   17  S  1 XY    0.000000   0.000000
   18  S  1 XZ    0.000000   0.309968
   19  S  1 YZ    0.000000   0.579304
   20  S  2  S   -0.044960   0.000000
   21  S  2  S    0.003078   0.000000
   22  S  2  X    0.000000  -0.031038
   23  S  2  Y    0.000000  -0.058007
   24  S  2  Z    0.155294   0.000000
   25  S  2  S   -1.171676   0.000000
   26  S  2  X    0.000000   0.106876
   27  S  2  Y    0.000000   0.199743
   28  S  2  Z   -0.602117   0.000000
   29  S  2  S    3.718061   0.000000
   30  S  2  X    0.000000  -0.032182
   31  S  2  Y    0.000000  -0.060146
   32  S  2  Z    2.217378   0.000000
   33  S  2 XX   -0.079586   0.000000
   34  S  2 YY   -0.079586   0.000000
   35  S  2 ZZ   -0.032483   0.000000
   36  S  2 XY    0.000000   0.000000
   37  S  2 XZ    0.000000  -0.309968
   38  S  2 YZ    0.000000  -0.579304

     ----------------------------------------------------------------
     PROPERTY VALUES FOR THE UHF   SELF-CONSISTENT FIELD WAVEFUNCTION
     ----------------------------------------------------------------

          -----------------
          ENERGY COMPONENTS
          -----------------

         WAVEFUNCTION NORMALIZATION =       1.0000000000

                ONE ELECTRON ENERGY =   -1242.4295398487
                TWO ELECTRON ENERGY =     375.2857116404
           NUCLEAR REPULSION ENERGY =      72.1272502069
                                      ------------------
                       TOTAL ENERGY =    -795.0165780013

 ELECTRON-ELECTRON POTENTIAL ENERGY =     375.2857116404
  NUCLEUS-ELECTRON POTENTIAL ENERGY =   -2037.2393078925
   NUCLEUS-NUCLEUS POTENTIAL ENERGY =      72.1272502069
                                      ------------------
             TOTAL POTENTIAL ENERGY =   -1589.8263460451
               TOTAL KINETIC ENERGY =     794.8097680439
                 VIRIAL RATIO (V/T) =       2.0002602006

  ...... PI ENERGY ANALYSIS ......

 ENERGY ANALYSIS:
            FOCK ENERGY=   -491.8581176121
          BARE H ENERGY=  -1242.4295398487
     ELECTRONIC ENERGY =   -867.1438287304
         KINETIC ENERGY=    794.8097680439
          N-N REPULSION=     72.1272502069
           TOTAL ENERGY=   -795.0165785234
        SIGMA PART(1+2)=   -663.8867288623
               (K,V1,2)=    643.4519977994  -1535.5701504383    228.2314237766
           PI PART(1+2)=   -203.2570998681
               (K,V1,2)=    151.3577702444   -501.6691574542    147.0542873417
  SIGMA SKELETON, ERROR=   -591.7594786553      0.0000000000
             MIXED PART= 0.00000E+00 0.00000E+00 0.00000E+00 0.00000E+00
 ...... END OF PI ENERGY ANALYSIS ......

          ---------------------------------------
          MULLIKEN AND LOWDIN POPULATION ANALYSES
          ---------------------------------------

     ATOMIC MULLIKEN POPULATION IN EACH MOLECULAR ORBITAL
        ALPHA ORBITALS

                      1          2          3          4          5

                  1.000000   1.000000   1.000000   1.000000   1.000000

    1             0.500000   0.500000   0.500000   0.500000   0.500000
    2             0.500000   0.500000   0.500000   0.500000   0.500000

                      6          7          8          9         10

                  1.000000   1.000000   1.000000   1.000000   1.000000

    1             0.500000   0.500000   0.500000   0.500000   0.500000
    2             0.500000   0.500000   0.500000   0.500000   0.500000

                     11         12         13         14         15

                  1.000000   1.000000   1.000000   1.000000   1.000000

    1             0.500000   0.500000   0.500000   0.500000   0.500000
    2             0.500000   0.500000   0.500000   0.500000   0.500000

                     16         17

                  1.000000   1.000000

    1             0.500000   0.500000
    2             0.500000   0.500000

     ATOMIC MULLIKEN POPULATION IN EACH MOLECULAR ORBITAL
         BETA ORBITALS

                      1          2          3          4          5

                  1.000000   1.000000   1.000000   1.000000   1.000000

    1             0.500000   0.500000   0.500000   0.500000   0.500000
    2             0.500000   0.500000   0.500000   0.500000   0.500000

                      6          7          8          9         10

                  1.000000   1.000000   1.000000   1.000000   1.000000

    1             0.500000   0.500000   0.500000   0.500000   0.500000
    2             0.500000   0.500000   0.500000   0.500000   0.500000

                     11         12         13         14         15

                  1.000000   1.000000   1.000000   1.000000   1.000000

    1             0.500000   0.500000   0.500000   0.500000   0.500000
    2             0.500000   0.500000   0.500000   0.500000   0.500000

     ATOMIC SPIN POPULATION (ALPHA MINUS BETA)
       ATOM         MULL.POP.                    LOW.POP.
    1 S             1.000000                     1.000000
    2 S             1.000000                     1.000000


          ********* ALL ELECTRONS ********

               ----- POPULATIONS IN EACH AO -----
                             MULLIKEN      LOWDIN
              1  S  1  S      1.99891     1.99862
              2  S  1  S      1.99881     1.98436
              3  S  1  X      1.99280     1.96763
              4  S  1  Y      1.99280     1.96763
              5  S  1  Z      1.99158     1.96306
              6  S  1  S      1.33927     0.61171
              7  S  1  X      0.98222     0.92601
              8  S  1  Y      0.98222     0.92601
              9  S  1  Z      0.88448     0.81266
             10  S  1  S      0.57735     0.47979
             11  S  1  X      0.50743     0.58655
             12  S  1  Y      0.50743     0.58655
             13  S  1  Z      0.15656     0.37008
             14  S  1 XX      0.00298     0.25033
             15  S  1 YY      0.00298     0.25033
             16  S  1 ZZ      0.04707     0.27906
             17  S  1 XY      0.00000     0.00000
             18  S  1 XZ      0.01755     0.01981
             19  S  1 YZ      0.01755     0.01981
             20  S  2  S      1.99891     1.99862
             21  S  2  S      1.99881     1.98436
             22  S  2  X      1.99280     1.96763
             23  S  2  Y      1.99280     1.96763
             24  S  2  Z      1.99158     1.96306
             25  S  2  S      1.33927     0.61171
             26  S  2  X      0.98222     0.92601
             27  S  2  Y      0.98222     0.92601
             28  S  2  Z      0.88448     0.81266
             29  S  2  S      0.57735     0.47979
             30  S  2  X      0.50743     0.58655
             31  S  2  Y      0.50743     0.58655
             32  S  2  Z      0.15656     0.37008
             33  S  2 XX      0.00298     0.25033
             34  S  2 YY      0.00298     0.25033
             35  S  2 ZZ      0.04707     0.27906
             36  S  2 XY      0.00000     0.00000
             37  S  2 XZ      0.01755     0.01981
             38  S  2 YZ      0.01755     0.01981

          ----- MULLIKEN ATOMIC OVERLAP POPULATIONS -----
          (OFF-DIAGONAL ELEMENTS NEED TO BE MULTIPLIED BY 2)

             1           2

    1   15.8405234
    2    0.1594766  15.8405234

          TOTAL MULLIKEN AND LOWDIN ATOMIC POPULATIONS
       ATOM         MULL.POP.    CHARGE          LOW.POP.     CHARGE
    1 S            16.000000   -0.000000        16.000000   -0.000000
    2 S            16.000000    0.000000        16.000000   -0.000000

          -------------------------------
          BOND ORDER AND VALENCE ANALYSIS     BOND ORDER THRESHOLD=0.050
          -------------------------------

                   BOND                       BOND                       BOND
  ATOM PAIR DIST  ORDER      ATOM PAIR DIST  ORDER      ATOM PAIR DIST  ORDER
    1   2  1.878  1.817

                       TOTAL       BONDED        FREE
      ATOM            VALENCE     VALENCE     VALENCE
    1 S                 2.397       1.817       0.580
    2 S                 2.397       1.817       0.580

          -----------------------------------------
          ATOMIC SPIN DENSITY AT THE NUCLEUS (A.U.)
          -----------------------------------------
                            SPIN DENS    ALPHA DENS     BETA DENS
    1  S           16.0     0.2336715    1252.60818    1252.37451
    2  S           16.0     0.2336715    1252.60818    1252.37451

          ---------------------
          ELECTROSTATIC MOMENTS
          ---------------------

 POINT   1           X           Y           Z (BOHR)    CHARGE
                 0.000000    0.000000   -0.000000       -0.00 (A.U.)
         DX          DY          DZ         /D/  (DEBYE)
     0.000000    0.000000    0.000000    0.000000
 ...... END OF PROPERTY EVALUATION ......
 STEP CPU TIME =     0.00 TOTAL CPU TIME =          0.3 (      0.0 MIN)
 TOTAL WALL CLOCK TIME=          0.3 SECONDS, CPU UTILIZATION IS    99.16%
  $VIB   
          IVIB=   0 IATOM=   0 ICOORD=   0 E=     -795.0165780013
  0.000000000E+00 0.000000000E+00 2.426342039E-05 0.000000000E+00 0.000000000E+00
 -2.426342051E-05
  0.000000000E+00 0.000000000E+00 5.418100102E-14
 ......END OF GEOMETRY SEARCH......
 STEP CPU TIME =     0.00 TOTAL CPU TIME =          0.3 (      0.0 MIN)
 TOTAL WALL CLOCK TIME=          0.3 SECONDS, CPU UTILIZATION IS    99.16%
               993587  WORDS OF DYNAMIC MEMORY USED
 EXECUTION OF GAMESS TERMINATED NORMALLY 19:56:15 20-OCT-2025    
----- accounting info -----
Files used on the parent node Macbooks-MacBook-Pro.local were:
-rw-r--r--  1 macbookpro  staff      241 Oct 20 19:56 /Users/macbookpro/local/gamess/scr/s2_q0m3_uhf_631g_star.F05
-rw-r--r--  1 macbookpro  staff   900080 Oct 20 19:56 /Users/macbookpro/local/gamess/scr/s2_q0m3_uhf_631g_star.F08
-rw-r--r--  1 macbookpro  staff  2094080 Oct 20 19:56 /Users/macbookpro/local/gamess/scr/s2_q0m3_uhf_631g_star.F10
-rw-r--r--  1 macbookpro  staff   159071 Oct 20 19:56 /Users/macbookpro/local/gamess/scr/s2_q0m3_uhf_631g_star.dat
Mon Oct 20 19:56:15 +07 2025
0.307u 0.055s 0:00.37 94.5%	0+0k 0+0io 46pf+0w
