1 : sc_q0m1_uhf_631g_star.inp
----- GAMESS execution script 'rungms' -----
This job is running on host Macbooks-MacBook-Pro.local
under operating system Darwin at Mon Oct 20 19:56:09 +07 2025
Available scratch disk space (Kbyte units) at beginning of the job is
Filesystem   1024-blocks      Used Available Capacity iused      ifree %iused  Mounted on
/dev/disk3s5   482797652 122175104 339918108    27% 1896401 3399181080    0%   /System/Volumes/Data
GAMESS temporary binary files will be written to /Users/macbookpro/local/gamess/scr
GAMESS supplementary output files will be written to /Users/macbookpro/local/gamess/scr
Copying input file /Users/macbookpro/sq2_data/sc_q0m1_uhf_631g_star.inp to your run's scratch directory...
          *******************************************************
          *                                                     *
          *          GAMESS VERSION = 30 JUN 2023 (R1)          *
          *                                                     *
          *              doi.org/10.1063/5.0005188              *
          *                                                     *
          **************** 64 BIT LINUX VERSION *****************

  GAMESS HAS BEEN MADE POSSIBLE WITH IMPORTANT CONTRIBUTIONS FROM
  THE FOLLOWING INDIVIDUALS (IN ALPHABETICAL ORDER):

     IVANA ADAMOVIC, CHRISTINE AIKENS, TOMOKO AKAMA,
     MELISA ALKAN, YURI ALEXEEV, YURIKO AOKI, POOJA ARORA,
     TOSHIO ASADA, ANDREY ASADCHEV, KIM K. BALDRIDGE,
     PRADIPTA BANDYOPADHYAY, TAYLOR A. BARNES, MARIA BARYSZ,
     ROB BELL, JONATHAN BENTZ, COLLEEN BERTONI,
     JERRY A. BOATZ, BRETT BODE, KURT BRORSEN, KURT R. BRORSEN,
     LAIMUTIS BYTAUTAS, CALEB CARLIN, LAURA CARRINGTON,
     GALINA CHABAN, BENOIT CHAMPAGNE, WEI CHEN, MAHITO CHIBA,
     DAN CHIPMAN, CHEOL HO CHOI, TANNER CULPITT,
     DIPAYAN DATTA, PAUL DAY, ALBERT DEFUSCO,
     NUWAN DESILVA, J. EMILIANO DEUSTUA,
     TIM DUDLEY, MICHEL DUPUIS, STEVEN T. ELBERT,
     DMITRI FEDOROV, KATHERINE FERRERAS, MICHAEL FILATOV,
     ALEX FINDLATER,GRAHAM FLETCHER, MARK FREITAG,
     CHRISTIAN FRIEDL, DAVID GARMER, 
     IGOR S. GERASIMOV, KURT GLAESEMANN,
     MARK S. GORDON, JEFFREY R. GOUR, FENG LONG GU,
     EMILIE B. GUIDEZ, ANASTASIA GUNINA, SHARON HAMMES-SCHIFFER,
     MASATAKE HARUTA, KIMIHIKO HIRAO, YASUHIRO IKABATA,
     TZVETELIN IORDANOV, STEPHAN IRLE, KAZUYA ISHIMURA,
     JOE IVANIC, FRANK JENSEN, JAN H. JENSEN, VISVALDAS KAIRYS,
     MUNEAKI KAMIYA, MICHIO KATOUDA, NAOAKI KAWAKAMI, DAN KEMP,
     BERNARD KIRTMAN, KAZUO KITAURA, MARIUSZ KLOBUKOWSKI,
     MASATO KOBAYASHI, KONSTANTIN KOMAROV, PRAKASHAN KORAMBATH,
     JACEK KORCHOWIEC, SHIRO KOSEKI, KAROL KOWALSKI,
     JIMMY KROMANN, STANISLAW A. KUCHARSKI, HENRY KURTZ,
     SAROM SOK LEANG, SEUNGHOON LEE, HUI LI, SHUHUA LI, WEI LI,
     JESSE J. LUTZ, ALEKSANDR O. LYKHIN,
     ILIAS MAGOULAS, MARCIN MAKOWSKI,
     JOANI MATO, NIKITA MATSUNAGA, BENEDETTA MENNUCCI,
     GRANT MERRILL, NORIYUKI MINEZAWA, VLADIMIR MIRONOV,
     EISAKU MIYOSHI, JOHN A. MONTGOMERY JR., HIROTOSHI MORI,
     JONATHAN MULLIN, MONIKA MUSIAL, SHIGERU NAGASE,
     TAKESHI NAGATA, HIROMI NAKAI, TAKAHITO NAKAJIMA,
     YUYA NAKAJIMA, HARUYUKI NAKANO, HIROYA NAKATA, SEAN NEDD,
     HEATHER NETZLOFF, KIET A. NGUYEN, YOSHIO NISHIMOTO,
     BOSILJKA NJEGIC, RYAN OLSON, MIKE PAK, ROBERTO PEVERATI,
     BUU PHAM, PIOTR PIECUCH, ANNA POMOGAEVA, DAVID POOLE,
     SPENCER PRUITT, OLIVIER QUINET, LUKE ROSKOP,
     KLAUS RUEDENBERG, ANDREW SAND, TOSAPORN SATTASATHUCHANA,
     NOZOMI SAWADA, MICHAEL W. SCHMIDT, PATRICK E. SCHNEIDER,
     JUNJI SEINO, PRACHI SHARMA, JUN SHEN, JIM SHOEMAKER,
     YINAN SHU, DEJUN SI, JONATHAN SKONE, LYUDMILA SLIPCHENKO,
     TONY SMITH, JIE SONG, MARK SPACKMAN, CASPER STEINMANN,
     WALT STEVENS, PEIFENG SU, SHUJUN SU, CHET SWALINA,
     CHINAMI TAKASHIMA, TETSUYA TAKETSUGU, ZHEN TAO,
     NANDUN THELLAMUREGE, SEIKEN TOKURA, JACOPO TOMASI,
     TSUGUKI TOUMA, TAKAO TSUNEDA, HIROAKI UMEDA,
     JORGE LUIS GALVEZ VALLEJO, YALI WANG, SIMON WEBB,
     AARON WEST, THERESA L. WINDUS, MARTA WLOCH,
     PENG XU, KIYOSHI YAGI, SUSUMU YANAGISAWA, YANG YANG,
     SOOHAENG YOO, TAKESHI YOSHIKAWA, FEDERICO ZAHARIEV,
     TOBY ZENG

  WHO ARE SUPPORTED BY THEIR INSTITUTION/UNIVERSITY/COMPANY/GROUP
  (IN ALPHABETICAL ORDER):

     EP ANALYTICS,
     FACULTES UNIVERSITAIRES NOTRE-DAME DE LA PAIX,
     INSTITUTE FOR MOLECULAR SCIENCE, IOWA STATE UNIVERSITY,
     JACKSON STATE UNIVERSITY, JOHANNES KEPLER UNIVERSITY LINZ,
     KYUNGPOOK NATIONAL UNIVERSITY
     KYUSHU UNIVERSITY, MICHIGAN STATE UNIVERSITY,
     MIE UNIVERSITY, THE MOLECULAR SCIENCES SOFTWARE INSTITUTE,
     MOSCOW STATE UNIVERSITY,
     N. COPERNICUS UNIVERSITY, NAGOYA UNIVERSITY,
     NANJING UNIVERSITY, NAT. INST. OF ADVANCED INDUSTRIAL
     SCIENCE AND TECHNOLOGY, NATIONAL INST. OF STANDARDS AND
     TECHNOLOGY, NESMEYANOV INSTITUTE OF ORGANOELEMENT COMPOUNDS
     OF RUSSIAN ACADEMY OF SCIENCES, OSAKA PREFECTURE UNIVERSITY,
     PENNSYLVANIA STATE UNIVERSITY, TOKYO INSTITUTE OF TECHNOLOGY,
     UNIVERSITY OF AARHUS, UNIVERSITY OF ALBERTA,
     UNIVERSITY OF CALIFORNIA AT SANTA BARBARA,
     UNIVERSITY OF COPENHAGEN, UNIVERSITY OF IOWA,
     UNIVERSITY OF MEMPHIS, UNIVERSITY OF MINNESOTA,
     UNIVERSITY OF NEBRASKA, UNIVERSITY OF NEW ENGLAND,
     UNIVERSITY OF NOTRE DAME, UNIVERSITY OF PISA,
     UNIVERSITY OF SILESIA, UNIVERSITY OF TOKYO,
     UNIVERSITY OF ZURICH, WASEDA UNIVERSITY,
     YALE UNIVERSITY

  GAMESS SOFTWARE MANAGEMENT TEAM FOR THIS RELEASE:
     MARK S. GORDON (TEAM LEAD),
     BRETT BODE (SENIOR ADVISOR),
     GIUSEPPE BARCA,
     COLLEEN BERTONI,
     KRISTOPHER KEIPERT (ADVISOR),
     SAROM S. LEANG (DEVELOPMENT LEAD),
     BUU PHAM,
     JACKSON HAYES (WEBSITE ADMINISTRATOR),
     PENG XU

 EXECUTION OF GAMESS BEGUN 19:56:09 20-OCT-2025    

            ECHO OF THE FIRST FEW INPUT CARDS -
 INPUT CARD> $CONTRL SCFTYP=UHF ICHARG=0 MULT=1                                             
 INPUT CARD> RUNTYP=OPTIMIZE                                                                
 INPUT CARD> $END                                                                           
 INPUT CARD> $BASIS GBASIS=N31 NGAUSS=6 NDFUNC=1 $END                                       
 INPUT CARD> $DATA                                                                          
 INPUT CARD> ... this is comment ...                                                        
 INPUT CARD> C1                                                                             
 INPUT CARD> C     6   0.00000000   0.00000000  -1.12321675                                 
 INPUT CARD> S    16   0.00000000   0.00000000   0.42279275                                 
 INPUT CARD> $END                                                                           
 INPUT CARD>                                                                                
      1000000 WORDS OF MEMORY AVAILABLE

     BASIS OPTIONS
     -------------
     GBASIS=N31          IGAUSS=       6      POLAR=POPN31  
     NDFUNC=       1     NFFUNC=       0     DIFFSP=       F
     NPFUNC=       0      DIFFS=       F     BASNAM=        


     RUN TITLE
     ---------
  ... this is comment ...                                                        

 THE POINT GROUP OF THE MOLECULE IS C1      
 THE ORDER OF THE PRINCIPAL AXIS IS     0

 ATOM      ATOMIC                      COORDINATES (BOHR)
           CHARGE         X                   Y                   Z
 C           6.0     0.0000000000        0.0000000000       -2.1225718823
 S          16.0     0.0000000000        0.0000000000        0.7989624471

          INTERNUCLEAR DISTANCES (ANGS.)
          ------------------------------

                1 C          2 S     

   1 C       0.0000000    1.5460095 *
   2 S       1.5460095 *  0.0000000  

  * ... LESS THAN  3.000


     ATOMIC BASIS SET
     ----------------
 THE CONTRACTED PRIMITIVE FUNCTIONS HAVE BEEN UNNORMALIZED
 THE CONTRACTED BASIS FUNCTIONS ARE NOW NORMALIZED TO UNITY

  SHELL TYPE  PRIMITIVE        EXPONENT          CONTRACTION COEFFICIENT(S)

 C         

      1   S       1          3047.5248800    0.001834737132
      1   S       2           457.3695180    0.014037322813
      1   S       3           103.9486850    0.068842622264
      1   S       4            29.2101553    0.232184443216
      1   S       5             9.2866630    0.467941348435
      1   S       6             3.1639270    0.362311985337

      2   L       7             7.8682723   -0.119332419775    0.068999066591
      2   L       8             1.8812885   -0.160854151696    0.316423960957
      2   L       9             0.5442493    1.143456437840    0.744308290898

      3   L      10             0.1687145    1.000000000000    1.000000000000

      4   D      11             0.8000000    1.000000000000

 S         

      5   S      12         21917.1000000    0.001869240849
      5   S      13          3301.4900000    0.014230306464
      5   S      14           754.1460000    0.069696231659
      5   S      15           212.7110000    0.238487108332
      5   S      16            67.9896000    0.483307219541
      5   S      17            23.0515000    0.338074153569

      6   L      18           423.7350000   -0.002376770499    0.004061009982
      6   L      19           100.7100000   -0.031693006651    0.030681299864
      6   L      20            32.1599000   -0.113317023779    0.130451999421
      6   L      21            11.8079000    0.056090011770    0.327204998547
      6   L      22             4.6311000    0.592255124284    0.452850997989
      6   L      23             1.8702500    0.455006095483    0.256041998863

      7   L      24             2.6158400   -0.250373114159   -0.014510489547
      7   L      25             0.9221670    0.066956763101    0.310262776489
      7   L      26             0.3412870    1.054506269068    0.754482456476

      8   L      27             0.1171670    1.000000000000    1.000000000000

      9   D      28             0.6500000    1.000000000000

 TOTAL NUMBER OF BASIS SET SHELLS             =    9
 NUMBER OF CARTESIAN GAUSSIAN BASIS FUNCTIONS =   34
 NUMBER OF ELECTRONS                          =   22
 CHARGE OF MOLECULE                           =    0
 SPIN MULTIPLICITY                            =    1
 NUMBER OF OCCUPIED ORBITALS (ALPHA)          =   11
 NUMBER OF OCCUPIED ORBITALS (BETA )          =   11
 TOTAL NUMBER OF ATOMS                        =    2
 THE NUCLEAR REPULSION ENERGY IS       32.8594461593

 THIS MOLECULE IS RECOGNIZED AS BEING LINEAR,
 ORBITAL LZ DEGENERACY TOLERANCE ETOLLZ= 1.00E-06

     $CONTRL OPTIONS
     ---------------
 SCFTYP=UHF          RUNTYP=OPTIMIZE     EXETYP=RUN     
 MPLEVL=       0     CITYP =NONE         CCTYP =NONE         VBTYP =NONE    
 DFTTYP=NONE         TDDFT =NONE    
 MULT  =       1     ICHARG=       0     NZVAR =       0     COORD =UNIQUE  
 PP    =NONE         RELWFN=NONE         LOCAL =NONE         NUMGRD=       F
 ISPHER=      -1     NOSYM =       0     MAXIT =      30     UNITS =ANGS    
 PLTORB=       F     MOLPLT=       F     AIMPAC=       F     FRIEND=        
 NPRINT=       7     IREST =       0     GEOM  =INPUT   
 NORMF =       0     NORMP =       0     ITOL  =      20     ICUT  =       9
 INTTYP=BEST         GRDTYP=BEST         QMTTOL= 1.0E-06

     $SYSTEM OPTIONS
     ---------------
  REPLICATED MEMORY=     1000000 WORDS (ON EVERY NODE).
 DISTRIBUTED MEMDDI=           0 MILLION WORDS IN AGGREGATE,
 MEMDDI DISTRIBUTED OVER   1 PROCESSORS IS           0 WORDS/PROCESSOR.
 TOTAL MEMORY REQUESTED ON EACH PROCESSOR=     1000000 WORDS.
 TIMLIM=      525600.00 MINUTES, OR     365.0 DAYS.
 PARALL= F  BALTYP=  DLB     KDIAG=    0  COREFL= F
 MXSEQ2=     300 MXSEQ3=     150  mem10=         0  mem22=         0

          ----------------
          PROPERTIES INPUT
          ----------------

     MOMENTS            FIELD           POTENTIAL          DENSITY
 IEMOM =       1   IEFLD =       0   IEPOT =       0   IEDEN =       0
 WHERE =COMASS     WHERE =NUCLEI     WHERE =NUCLEI     WHERE =NUCLEI  
 OUTPUT=BOTH       OUTPUT=BOTH       OUTPUT=BOTH       OUTPUT=BOTH    
 IEMINT=       0   IEFINT=       0                     IEDINT=       0
                                                       MORB  =       0
          EXTRAPOLATION IN EFFECT
          SOSCF IN EFFECT
          DIIS or SOSCF will be reset if energy rises
 ORBITAL PRINTING OPTION: NPREO=     1    34     2     1

     -------------------------------
     INTEGRAL TRANSFORMATION OPTIONS
     -------------------------------
     NWORD  =            0
     CUTTRF = 1.0E-09     MPTRAN =       0
     DIRTRF =       F     AOINTS =DUP     

          ----------------------
          INTEGRAL INPUT OPTIONS
          ----------------------
 NOPK  =       1 NORDER=       0 SCHWRZ=       F

     ------------------------------------------
     THE POINT GROUP IS C1 , NAXIS= 0, ORDER= 1
     ------------------------------------------

     DIMENSIONS OF THE SYMMETRY SUBSPACES ARE
 A   =   34

 ..... DONE SETTING UP THE RUN .....
 STEP CPU TIME =     0.00 TOTAL CPU TIME =          0.0 (      0.0 MIN)
 TOTAL WALL CLOCK TIME=          0.0 SECONDS, CPU UTILIZATION IS    97.63%


          -----------------------------
          STATIONARY POINT LOCATION RUN
          -----------------------------

 OBTAINING INITIAL HESSIAN, HESS=GUESS   
 CARTESIAN COORDINATE OPTIMIZATION USING BADGER'S RULE FORCE CONSTANT GUESS

          PARAMETERS CONTROLLING GEOMETRY SEARCH ARE
          METHOD =QA                  UPHESS =BFGS    
          NNEG   =         0          NFRZ   =         0
          NSTEP  =        50          IFOLOW =         1
          HESS   =GUESS               RESTAR =         F
          IHREP  =         0          HSSEND =         F
          NPRT   =         0          NPUN   =         0
          OPTTOL = 1.000E-04          RMIN   = 1.500E-03
          RMAX   = 1.000E-01          RLIM   = 7.000E-02
          DXMAX  = 3.000E-01          PURIFY =         F
          MOVIE  =         F          TRUPD  =         T
          TRMAX  = 5.000E-01          TRMIN  = 5.000E-02
          ITBMAT =         5          STPT   =         F
          STSTEP = 1.000E-02          PROJCT=          T

 BEGINNING GEOMETRY SEARCH POINT NSERCH=   0 ...

 COORDINATES OF ALL ATOMS ARE (ANGS)
   ATOM   CHARGE       X              Y              Z
 ------------------------------------------------------------
 C           6.0   0.0000000000   0.0000000000  -1.1232167500
 S          16.0   0.0000000000   0.0000000000   0.4227927500

          ********************
          1 ELECTRON INTEGRALS
          ********************
 ...... END OF ONE-ELECTRON INTEGRALS ......
 STEP CPU TIME =     0.00 TOTAL CPU TIME =          0.0 (      0.0 MIN)
 TOTAL WALL CLOCK TIME=          0.0 SECONDS, CPU UTILIZATION IS    97.83%

          -------------
          GUESS OPTIONS
          -------------
          GUESS =HUCKEL            NORB  =       0          NORDER=       0
          MIX   =       F          PRTMO =       F          PUNMO =       F
          TOLZ  = 1.0E-08          TOLE  = 1.0E-05
          SYMDEN=       F          PURIFY=       F

 INITIAL GUESS ORBITALS GENERATED BY HUCKEL   ROUTINE.
 HUCKEL GUESS REQUIRES     11066 WORDS.

 SYMMETRIES FOR INITIAL GUESS ORBITALS FOLLOW.  ALPHA SET(S).
    11 ORBITALS ARE OCCUPIED (    6 CORE ORBITALS).
     7=A        8=A        9=A       10=A       11=A       12=A       13=A   
    14=A       15=A       16=A       17=A       18=A       19=A       20=A   
    21=A   

 SYMMETRIES FOR INITIAL GUESS ORBITALS FOLLOW.   BETA SET(S).
    11 ORBITALS ARE OCCUPIED (    6 CORE ORBITALS).
     7=A        8=A        9=A       10=A       11=A       12=A       13=A   
    14=A       15=A       16=A       17=A       18=A       19=A       20=A   
    21=A   
 ...... END OF INITIAL ORBITAL SELECTION ......
 STEP CPU TIME =     0.00 TOTAL CPU TIME =          0.0 (      0.0 MIN)
 TOTAL WALL CLOCK TIME=          0.0 SECONDS, CPU UTILIZATION IS    98.17%

                    ----------------------
                    AO INTEGRAL TECHNOLOGY
                    ----------------------
     S,P,L SHELL ROTATED AXIS INTEGRALS, REPROGRAMMED BY
        KAZUYA ISHIMURA (IMS) AND JOSE SIERRA (SYNSTAR).
     S,P,D,L SHELL ROTATED AXIS INTEGRALS PROGRAMMED BY
        KAZUYA ISHIMURA (INSTITUTE FOR MOLECULAR SCIENCE).
     S,P,D,F,G SHELL TO TOTAL QUARTET ANGULAR MOMENTUM SUM 5,
        ERIC PROGRAM BY GRAHAM FLETCHER (ELORET AND NASA ADVANCED
        SUPERCOMPUTING DIVISION, AMES RESEARCH CENTER).
     S,P,D,F,G,L SHELL GENERAL RYS QUADRATURE PROGRAMMED BY
        MICHEL DUPUIS (PACIFIC NORTHWEST NATIONAL LABORATORY).

          --------------------
          2 ELECTRON INTEGRALS
          --------------------

 THE -PK- OPTION IS OFF, THE INTEGRALS ARE NOT IN SUPERMATRIX FORM.
 STORING   15000 INTEGRALS/RECORD ON DISK, USING 12 BYTES/INTEGRAL.
 TWO ELECTRON INTEGRAL EVALUATION REQUIRES   90441 WORDS OF MEMORY.
 II,JST,KST,LST =  1  1  1  1 NREC =         1 INTLOC =    1
 II,JST,KST,LST =  2  1  1  1 NREC =         1 INTLOC =    2
 II,JST,KST,LST =  3  1  1  1 NREC =         1 INTLOC =   34
 II,JST,KST,LST =  4  1  1  1 NREC =         1 INTLOC =  214
 II,JST,KST,LST =  5  1  1  1 NREC =         1 INTLOC = 1189
 II,JST,KST,LST =  6  1  1  1 NREC =         1 INTLOC = 1797
 II,JST,KST,LST =  7  1  1  1 NREC =         1 INTLOC = 5475
 II,JST,KST,LST =  8  1  1  1 NREC =         1 INTLOC =11971
 II,JST,KST,LST =  9  1  1  1 NREC =         2 INTLOC = 7299
 TOTAL NUMBER OF NONZERO TWO-ELECTRON INTEGRALS =               46337
          4 INTEGRAL RECORDS WERE STORED ON DISK FILE  8.
  ...... END OF TWO-ELECTRON INTEGRALS .....
 STEP CPU TIME =     0.01 TOTAL CPU TIME =          0.0 (      0.0 MIN)
 TOTAL WALL CLOCK TIME=          0.0 SECONDS, CPU UTILIZATION IS    99.32%

          ---------------------------
                  UHF SCF CALCULATION
          ---------------------------

     NUCLEAR ENERGY =        32.8594461593
     MAXIT = 30     NPUNCH=  2     MULT=  1
     EXTRAP=T  DAMP=F  SHIFT=F  RSTRCT=F  DIIS=F  SOSCF=T
     DENSITY MATRIX CONV=  1.00E-05
     SOSCF WILL OPTIMIZE     253 ALPHA AND     253 BETA ROTATION ANGLES.
     SOGTOL= 2.500E-01
     MEMORY REQUIRED FOR UHF/ROHF ITERS=     45646 WORDS.

 ITER EX      TOTAL ENERGY        E CHANGE  DENSITY CHANGE    ORB. GRAD 
   1  0     -434.7046064787  -434.7046064787   0.604866593   0.000000000
          ---------------START SECOND ORDER SCF---------------
   2  1     -435.1544461781    -0.4498396993   0.481769541   0.107809380
   3  2     -435.2486304998    -0.0941843217   0.172510212   0.081662835
   4  3     -435.3023356073    -0.0537051075   0.036479550   0.012266424
   5  4     -435.3033271809    -0.0009915736   0.018774774   0.004171082
   6  5     -435.3035045569    -0.0001773760   0.003835585   0.000829564
   7  6     -435.3035201514    -0.0000155944   0.002273448   0.000327564
   8  7     -435.3035228387    -0.0000026874   0.000300530   0.000115646
   9  8     -435.3035230056    -0.0000001668   0.000090264   0.000026554
  10  9     -435.3035230146    -0.0000000090   0.000021325   0.000006377
  11 10     -435.3035230150    -0.0000000004   0.000003211   0.000001827
  12 11     -435.3035230150    -0.0000000000   0.000000651   0.000000289

          -----------------
          DENSITY CONVERGED
          -----------------
     TIME TO FORM FOCK OPERATORS=       0.0 SECONDS (       0.0 SEC/ITER)
     TIME TO SOLVE SCF EQUATIONS=       0.0 SECONDS (       0.0 SEC/ITER)

 FINAL UHF ENERGY IS     -435.3035230150 AFTER  12 ITERATIONS

          --------------------
          SPIN SZ   =    0.000
          S-SQUARED =   -0.000
          --------------------

 LZ VALUE ANALYSIS FOR THE MOS
 ----------------------------------------
 MO     1 (    1) HAS LZ(WEIGHT)= 0.00(100.0%) 
 MO     2 (    2) HAS LZ(WEIGHT)= 0.00(100.0%) 
 MO     3 (    3) HAS LZ(WEIGHT)= 0.00(100.0%) 
 MO     4 (    4) HAS LZ(WEIGHT)= 0.00(100.0%) 
 MO     5 (    5) HAS LZ(WEIGHT)=-1.00( 50.0%)  1.00( 50.0%) 
 MO     6 (    5) HAS LZ(WEIGHT)=-1.00( 50.0%)  1.00( 50.0%) 
 MO     7 (    6) HAS LZ(WEIGHT)= 0.00(100.0%) 
 MO     8 (    7) HAS LZ(WEIGHT)= 0.00(100.0%) 
 MO     9 (    8) HAS LZ(WEIGHT)= 0.00(100.0%) 
 MO    10 (    9) HAS LZ(WEIGHT)=-1.00( 50.0%)  1.00( 50.0%) 
 MO    11 (    9) HAS LZ(WEIGHT)=-1.00( 50.0%)  1.00( 50.0%) 
 MO    12 (   10) HAS LZ(WEIGHT)=-1.00( 50.0%)  1.00( 50.0%) 
 MO    13 (   10) HAS LZ(WEIGHT)=-1.00( 50.0%)  1.00( 50.0%) 
 MO    14 (   11) HAS LZ(WEIGHT)= 0.00(100.0%) 
 MO    15 (   12) HAS LZ(WEIGHT)= 0.00(100.0%) 
 MO    16 (   13) HAS LZ(WEIGHT)=-1.00( 50.0%)  1.00( 50.0%) 
 MO    17 (   13) HAS LZ(WEIGHT)=-1.00( 50.0%)  1.00( 50.0%) 
 MO    18 (   14) HAS LZ(WEIGHT)= 0.00(100.0%) 
 MO    19 (   15) HAS LZ(WEIGHT)= 0.00(100.0%) 
 MO    20 (   16) HAS LZ(WEIGHT)=-1.00( 50.0%)  1.00( 50.0%) 
 MO    21 (   16) HAS LZ(WEIGHT)=-1.00( 50.0%)  1.00( 50.0%) 
 MO    22 (   17) HAS LZ(WEIGHT)=-2.00( 50.0%)  2.00( 50.0%) 
 MO    23 (   17) HAS LZ(WEIGHT)=-2.00( 50.0%)  2.00( 50.0%) 
 MO    24 (   18) HAS LZ(WEIGHT)=-1.00( 50.0%)  1.00( 50.0%) 
 MO    25 (   18) HAS LZ(WEIGHT)=-1.00( 50.0%)  1.00( 50.0%) 
 MO    26 (   19) HAS LZ(WEIGHT)= 0.00(100.0%) 
 MO    27 (   20) HAS LZ(WEIGHT)= 0.00(100.0%) 
 MO    28 (   21) HAS LZ(WEIGHT)=-2.00( 50.0%)  2.00( 50.0%) 
 MO    29 (   21) HAS LZ(WEIGHT)=-2.00( 50.0%)  2.00( 50.0%) 
 MO    30 (   22) HAS LZ(WEIGHT)=-1.00( 50.0%)  1.00( 50.0%) 
 MO    31 (   22) HAS LZ(WEIGHT)=-1.00( 50.0%)  1.00( 50.0%) 
 MO    32 (   23) HAS LZ(WEIGHT)= 0.00(100.0%) 
 MO    33 (   24) HAS LZ(WEIGHT)= 0.00(100.0%) 
 MO    34 (   25) HAS LZ(WEIGHT)= 0.00(100.0%) 

  ----- ALPHA SET ----- 

          ------------
          EIGENVECTORS
          ------------

                      1          2          3          4          5
                  -91.9876   -11.3602    -9.0036    -6.6852    -6.6833
                     A          A          A          A          A   
    1  C  1  S    0.000042   0.996226  -0.000522   0.000752  -0.000000
    2  C  1  S    0.000160   0.023875  -0.000058   0.000169  -0.000000
    3  C  1  X   -0.000000   0.000000  -0.000000  -0.000000   0.000085
    4  C  1  Y   -0.000000   0.000000  -0.000000  -0.000000  -0.000309
    5  C  1  Z   -0.000013   0.003038  -0.000062  -0.000039  -0.000000
    6  C  1  S   -0.000204  -0.009729   0.000485   0.002197  -0.000000
    7  C  1  X   -0.000000   0.000000  -0.000000  -0.000000  -0.000128
    8  C  1  Y   -0.000000   0.000000  -0.000000  -0.000000   0.000464
    9  C  1  Z    0.000133  -0.003274  -0.000672   0.002756  -0.000000
   10  C  1 XX    0.000058  -0.001675  -0.000055  -0.000002  -0.000000
   11  C  1 YY    0.000058  -0.001675  -0.000055  -0.000002  -0.000000
   12  C  1 ZZ   -0.000118  -0.000139  -0.000216  -0.000382  -0.000000
   13  C  1 XY   -0.000000   0.000000  -0.000000  -0.000000  -0.000000
   14  C  1 XZ   -0.000000   0.000000  -0.000000  -0.000000   0.000082
   15  C  1 YZ   -0.000000   0.000000  -0.000000  -0.000000  -0.000298
   16  S  2  S    0.996256  -0.000025  -0.281792  -0.000308  -0.000000
   17  S  2  S    0.014274   0.000061   1.030185   0.001264  -0.000000
   18  S  2  X   -0.000000   0.000000  -0.000000  -0.000000  -0.264591
   19  S  2  Y   -0.000000   0.000000  -0.000000  -0.000000   0.957607
   20  S  2  Z   -0.000038  -0.000090  -0.000308   0.993005  -0.000000
   21  S  2  S   -0.019945   0.000678   0.024156  -0.002112  -0.000000
   22  S  2  X   -0.000000   0.000000  -0.000000  -0.000000  -0.005768
   23  S  2  Y   -0.000000   0.000000  -0.000000  -0.000000   0.020875
   24  S  2  Z    0.000036   0.000518  -0.001209   0.023451  -0.000000
   25  S  2  S    0.002388   0.004455  -0.005605  -0.002314  -0.000000
   26  S  2  X   -0.000000   0.000000  -0.000000  -0.000000   0.001441
   27  S  2  Y   -0.000000   0.000000  -0.000000  -0.000000  -0.005215
   28  S  2  Z   -0.000049  -0.002830   0.000350  -0.004037  -0.000000
   29  S  2 XX    0.006951  -0.000118  -0.001706   0.000593  -0.000000
   30  S  2 YY    0.006951  -0.000118  -0.001706   0.000593  -0.000000
   31  S  2 ZZ    0.006971  -0.001215  -0.000884  -0.000900  -0.000000
   32  S  2 XY   -0.000000   0.000000  -0.000000  -0.000000  -0.000000
   33  S  2 XZ   -0.000000   0.000000  -0.000000  -0.000000   0.000005
   34  S  2 YZ   -0.000000   0.000000  -0.000000  -0.000000  -0.000017

                      6          7          8          9         10
                   -6.6833    -1.1008    -0.6905    -0.4695    -0.4582
                     A          A          A          A          A   
    1  C  1  S   -0.000000  -0.131989   0.149676   0.098053  -0.000000
    2  C  1  S   -0.000000   0.269971  -0.324464  -0.199319  -0.000000
    3  C  1  X   -0.000309   0.000000   0.000000  -0.000000   0.251718
    4  C  1  Y   -0.000085   0.000000   0.000000  -0.000000   0.091508
    5  C  1  Z   -0.000000   0.181333   0.001920   0.476485  -0.000000
    6  C  1  S   -0.000000   0.189255  -0.386644  -0.397140  -0.000000
    7  C  1  X    0.000464   0.000000   0.000000  -0.000000   0.166510
    8  C  1  Y    0.000128   0.000000   0.000000  -0.000000   0.060532
    9  C  1  Z   -0.000000   0.031279   0.016628   0.268087  -0.000000
   10  C  1 XX   -0.000000  -0.012334   0.007313  -0.006132  -0.000000
   11  C  1 YY   -0.000000  -0.012334   0.007313  -0.006132  -0.000000
   12  C  1 ZZ   -0.000000   0.025606  -0.000317   0.041153  -0.000000
   13  C  1 XY   -0.000000   0.000000   0.000000  -0.000000  -0.000000
   14  C  1 XZ   -0.000298   0.000000   0.000000  -0.000000   0.036759
   15  C  1 YZ   -0.000082   0.000000   0.000000  -0.000000   0.013363
   16  S  2  S   -0.000000   0.059612   0.047451  -0.001284  -0.000000
   17  S  2  S   -0.000000  -0.274949  -0.219887   0.013703  -0.000000
   18  S  2  X    0.957607   0.000000   0.000000  -0.000000  -0.212409
   19  S  2  Y    0.264591   0.000000   0.000000  -0.000000  -0.077218
   20  S  2  Z   -0.000000   0.080207  -0.147203   0.161488  -0.000000
   21  S  2  S   -0.000000   0.542992   0.477753   0.009604  -0.000000
   22  S  2  X    0.020875   0.000000   0.000000  -0.000000   0.559152
   23  S  2  Y    0.005768   0.000000   0.000000  -0.000000   0.203271
   24  S  2  Z   -0.000000  -0.171950   0.370955  -0.421064  -0.000000
   25  S  2  S   -0.000000   0.150204   0.323223  -0.195682  -0.000000
   26  S  2  X   -0.005215   0.000000   0.000000  -0.000000   0.289815
   27  S  2  Y   -0.001441   0.000000   0.000000  -0.000000   0.105357
   28  S  2  Z   -0.000000   0.007164   0.076176  -0.090099  -0.000000
   29  S  2 XX   -0.000000  -0.017511   0.019491  -0.018269  -0.000000
   30  S  2 YY   -0.000000  -0.017511   0.019491  -0.018269  -0.000000
   31  S  2 ZZ   -0.000000   0.048636  -0.040108   0.032824  -0.000000
   32  S  2 XY   -0.000000   0.000000   0.000000  -0.000000  -0.000000
   33  S  2 XZ   -0.000017   0.000000   0.000000  -0.000000  -0.051417
   34  S  2 YZ   -0.000005   0.000000   0.000000  -0.000000  -0.018692

                     11         12         13         14         15
                   -0.4582     0.0702     0.0702     0.2263     0.4221
                     A          A          A          A          A   
    1  C  1  S   -0.000000   0.000000   0.000000  -0.101641   0.002914
    2  C  1  S   -0.000000   0.000000   0.000000   0.133468  -0.089294
    3  C  1  X   -0.091508  -0.115210   0.434215   0.000000   0.000000
    4  C  1  Y    0.251718   0.434215   0.115210   0.000000   0.000000
    5  C  1  Z   -0.000000   0.000000   0.000000   0.223399   0.089174
    6  C  1  S   -0.000000   0.000000   0.000000   1.934022  -0.251080
    7  C  1  X   -0.060532  -0.171159   0.645082   0.000000   0.000000
    8  C  1  Y    0.166510   0.645082   0.171159   0.000000   0.000000
    9  C  1  Z   -0.000000   0.000000   0.000000   0.920144  -0.009312
   10  C  1 XX   -0.000000   0.000000   0.000000  -0.022941   0.007402
   11  C  1 YY   -0.000000   0.000000   0.000000  -0.022941   0.007402
   12  C  1 ZZ   -0.000000   0.000000   0.000000   0.007295  -0.038106
   13  C  1 XY   -0.000000   0.000000   0.000000   0.000000   0.000000
   14  C  1 XZ   -0.013363  -0.004380   0.016508   0.000000   0.000000
   15  C  1 YZ    0.036759   0.016508   0.004380   0.000000   0.000000
   16  S  2  S   -0.000000   0.000000   0.000000  -0.008666  -0.067957
   17  S  2  S   -0.000000   0.000000   0.000000   0.084753   0.094593
   18  S  2  X    0.077218  -0.032845   0.123789   0.000000   0.000000
   19  S  2  Y   -0.212409   0.123789   0.032845   0.000000   0.000000
   20  S  2  Z   -0.000000   0.000000   0.000000  -0.044649   0.066020
   21  S  2  S   -0.000000   0.000000   0.000000   0.042572  -1.481959
   22  S  2  X   -0.203271   0.088753  -0.334503   0.000000   0.000000
   23  S  2  Y    0.559152  -0.334503  -0.088753   0.000000   0.000000
   24  S  2  Z   -0.000000   0.000000   0.000000   0.098046  -0.263071
   25  S  2  S   -0.000000   0.000000   0.000000  -1.765045   1.864130
   26  S  2  X   -0.105357   0.127109  -0.479062   0.000000   0.000000
   27  S  2  Y    0.289815  -0.479062  -0.127109   0.000000   0.000000
   28  S  2  Z   -0.000000   0.000000   0.000000   1.831909   0.126468
   29  S  2 XX   -0.000000   0.000000   0.000000  -0.071453  -0.062600
   30  S  2 YY   -0.000000   0.000000   0.000000  -0.071453  -0.062600
   31  S  2 ZZ   -0.000000   0.000000   0.000000   0.166864  -0.102100
   32  S  2 XY   -0.000000   0.000000   0.000000   0.000000   0.000000
   33  S  2 XZ    0.018692   0.025534  -0.096236   0.000000   0.000000
   34  S  2 YZ   -0.051417  -0.096236  -0.025534   0.000000   0.000000

                     16         17         18         19         20
                    0.5052     0.5052     0.6124     0.7173     0.8120
                     A          A          A          A          A   
    1  C  1  S    0.000000  -0.000000  -0.070889  -0.037626   0.000000
    2  C  1  S    0.000000  -0.000000   0.117459   0.213659   0.000000
    3  C  1  X   -0.087895   0.001244  -0.000000   0.000000  -1.093976
    4  C  1  Y   -0.001244  -0.087895  -0.000000   0.000000   0.103282
    5  C  1  Z    0.000000  -0.000000   0.009991  -0.886890   0.000000
    6  C  1  S    0.000000  -0.000000   0.317777   0.619932   0.000000
    7  C  1  X   -0.039794   0.000563  -0.000000   0.000000   1.250505
    8  C  1  Y   -0.000563  -0.039794  -0.000000   0.000000  -0.118060
    9  C  1  Z    0.000000  -0.000000   1.064787   1.371255   0.000000
   10  C  1 XX    0.000000  -0.000000   0.043271   0.036603   0.000000
   11  C  1 YY    0.000000  -0.000000   0.043271   0.036603   0.000000
   12  C  1 ZZ    0.000000  -0.000000  -0.082387   0.066050   0.000000
   13  C  1 XY    0.000000  -0.000000  -0.000000   0.000000   0.000000
   14  C  1 XZ   -0.052468   0.000742  -0.000000   0.000000  -0.043615
   15  C  1 YZ   -0.000742  -0.052468  -0.000000   0.000000   0.004118
   16  S  2  S    0.000000  -0.000000  -0.020698   0.008722   0.000000
   17  S  2  S    0.000000  -0.000000   0.027356  -0.052414   0.000000
   18  S  2  X    0.285393  -0.004038  -0.000000   0.000000  -0.052133
   19  S  2  Y    0.004038   0.285393  -0.000000   0.000000   0.004922
   20  S  2  Z    0.000000  -0.000000  -0.288584   0.108348   0.000000
   21  S  2  S    0.000000  -0.000000  -0.450790   0.092996   0.000000
   22  S  2  X   -1.166244   0.016500  -0.000000   0.000000   0.191606
   23  S  2  Y   -0.016500  -1.166244  -0.000000   0.000000  -0.018089
   24  S  2  Z    0.000000  -0.000000   1.236849  -0.332822   0.000000
   25  S  2  S    0.000000  -0.000000  -0.339018  -1.004038   0.000000
   26  S  2  X    1.263949  -0.017882  -0.000000   0.000000  -0.528763
   27  S  2  Y    0.017882   1.263949  -0.000000   0.000000   0.049920
   28  S  2  Z    0.000000  -0.000000  -0.664312   0.834399   0.000000
   29  S  2 XX    0.000000  -0.000000  -0.066016   0.153366   0.000000
   30  S  2 YY    0.000000  -0.000000  -0.066016   0.153366   0.000000
   31  S  2 ZZ    0.000000  -0.000000   0.048217  -0.368525   0.000000
   32  S  2 XY    0.000000  -0.000000  -0.000000   0.000000   0.000000
   33  S  2 XZ    0.079851  -0.001130  -0.000000   0.000000   0.058086
   34  S  2 YZ    0.001130   0.079851  -0.000000   0.000000  -0.005484

                     21         22         23         24         25
                    0.8120     0.9927     0.9927     1.0062     1.0062
                     A          A          A          A          A   
    1  C  1  S    0.000000  -0.000000   0.000000  -0.000000  -0.000000
    2  C  1  S    0.000000  -0.000000   0.000000  -0.000000  -0.000000
    3  C  1  X   -0.103282  -0.000000   0.000000   0.191098   0.011574
    4  C  1  Y   -1.093976  -0.000000   0.000000  -0.011574   0.191098
    5  C  1  Z    0.000000  -0.000000   0.000000  -0.000000  -0.000000
    6  C  1  S    0.000000  -0.000000   0.000000  -0.000000  -0.000000
    7  C  1  X    0.118060  -0.000000   0.000000   0.199041   0.012055
    8  C  1  Y    1.250505  -0.000000   0.000000  -0.012055   0.199041
    9  C  1  Z    0.000000  -0.000000   0.000000  -0.000000  -0.000000
   10  C  1 XX    0.000000  -0.000010  -0.071187  -0.000000  -0.000000
   11  C  1 YY    0.000000   0.000010   0.071187  -0.000000  -0.000000
   12  C  1 ZZ    0.000000  -0.000000   0.000000  -0.000000  -0.000000
   13  C  1 XY    0.000000   0.082200  -0.000012  -0.000000  -0.000000
   14  C  1 XZ   -0.004118  -0.000000   0.000000  -0.207803  -0.012585
   15  C  1 YZ   -0.043615  -0.000000   0.000000   0.012585  -0.207803
   16  S  2  S    0.000000  -0.000000   0.000000  -0.000000  -0.000000
   17  S  2  S    0.000000  -0.000000   0.000000  -0.000000  -0.000000
   18  S  2  X   -0.004922  -0.000000   0.000000  -0.038794  -0.002349
   19  S  2  Y   -0.052133  -0.000000   0.000000   0.002349  -0.038794
   20  S  2  Z    0.000000  -0.000000   0.000000  -0.000000  -0.000000
   21  S  2  S    0.000000  -0.000000   0.000000  -0.000000  -0.000000
   22  S  2  X    0.018089  -0.000000   0.000000   0.161584   0.009786
   23  S  2  Y    0.191606  -0.000000   0.000000  -0.009786   0.161584
   24  S  2  Z    0.000000  -0.000000   0.000000  -0.000000  -0.000000
   25  S  2  S    0.000000  -0.000000   0.000000  -0.000000  -0.000000
   26  S  2  X   -0.049920  -0.000000   0.000000  -0.244128  -0.014785
   27  S  2  Y   -0.528763  -0.000000   0.000000   0.014785  -0.244128
   28  S  2  Z    0.000000  -0.000000   0.000000  -0.000000  -0.000000
   29  S  2 XX    0.000000  -0.000126  -0.859828  -0.000000  -0.000000
   30  S  2 YY    0.000000   0.000126   0.859828  -0.000000  -0.000000
   31  S  2 ZZ    0.000000  -0.000000   0.000000  -0.000000  -0.000000
   32  S  2 XY    0.000000   0.992844  -0.000145  -0.000000  -0.000000
   33  S  2 XZ    0.005484  -0.000000   0.000000   0.932017   0.056446
   34  S  2 YZ    0.058086  -0.000000   0.000000  -0.056446   0.932017

                     26         27         28         29         30
                    1.0787     1.4582     1.9577     1.9577     2.1873
                     A          A          A          A          A   
    1  C  1  S   -0.056902   0.034500  -0.000000  -0.000000  -0.000000
    2  C  1  S   -1.800848  -0.660543  -0.000000  -0.000000  -0.000000
    3  C  1  X    0.000000   0.000000  -0.000000  -0.000000   0.026362
    4  C  1  Y    0.000000   0.000000  -0.000000  -0.000000  -0.034804
    5  C  1  Z   -0.095446  -0.804503  -0.000000  -0.000000  -0.000000
    6  C  1  S    4.527454   0.387062  -0.000000  -0.000000  -0.000000
    7  C  1  X    0.000000   0.000000  -0.000000  -0.000000  -0.135754
    8  C  1  Y    0.000000   0.000000  -0.000000  -0.000000   0.179225
    9  C  1  Z    1.646691   0.480605  -0.000000  -0.000000  -0.000000
   10  C  1 XX   -0.075608  -0.123971   0.000002   0.864014  -0.000000
   11  C  1 YY   -0.075608  -0.123971  -0.000002  -0.864014  -0.000000
   12  C  1 ZZ   -0.190829   0.098942  -0.000000  -0.000000  -0.000000
   13  C  1 XY    0.000000   0.000000   0.997678  -0.000002  -0.000000
   14  C  1 XZ    0.000000   0.000000  -0.000000  -0.000000  -0.618372
   15  C  1 YZ    0.000000   0.000000  -0.000000  -0.000000   0.816388
   16  S  2  S    0.010640   0.005905  -0.000000  -0.000000  -0.000000
   17  S  2  S   -0.017618  -0.073753  -0.000000  -0.000000  -0.000000
   18  S  2  X    0.000000   0.000000  -0.000000  -0.000000  -0.030329
   19  S  2  Y    0.000000   0.000000  -0.000000  -0.000000   0.040041
   20  S  2  Z    0.010324   0.076158  -0.000000  -0.000000  -0.000000
   21  S  2  S    0.231599  -0.031476  -0.000000  -0.000000  -0.000000
   22  S  2  X    0.000000   0.000000  -0.000000  -0.000000   0.111634
   23  S  2  Y    0.000000   0.000000  -0.000000  -0.000000  -0.147382
   24  S  2  Z    0.150848  -0.217857  -0.000000  -0.000000  -0.000000
   25  S  2  S   -2.810144   0.058636  -0.000000  -0.000000  -0.000000
   26  S  2  X    0.000000   0.000000  -0.000000  -0.000000   0.063932
   27  S  2  Y    0.000000   0.000000  -0.000000  -0.000000  -0.084405
   28  S  2  Z    1.770482  -0.102950  -0.000000  -0.000000  -0.000000
   29  S  2 XX    0.158075  -0.512797  -0.000000  -0.110830  -0.000000
   30  S  2 YY    0.158075  -0.512797   0.000000   0.110830  -0.000000
   31  S  2 ZZ   -0.314984   0.914011  -0.000000  -0.000000  -0.000000
   32  S  2 XY    0.000000   0.000000  -0.127976   0.000000  -0.000000
   33  S  2 XZ    0.000000   0.000000  -0.000000  -0.000000  -0.288785
   34  S  2 YZ    0.000000   0.000000  -0.000000  -0.000000   0.381261

                     31         32         33         34
                    2.1873     2.6931     4.2975     4.4084
                     A          A          A          A   
    1  C  1  S   -0.000000  -0.083116  -0.228234   0.400597
    2  C  1  S   -0.000000  -0.278727   1.314362  -2.784355
    3  C  1  X   -0.034804  -0.000000  -0.000000   0.000000
    4  C  1  Y   -0.026362  -0.000000  -0.000000   0.000000
    5  C  1  Z   -0.000000   0.279739   0.068892   0.237379
    6  C  1  S   -0.000000   1.894591   0.849634  -1.334924
    7  C  1  X    0.179225  -0.000000  -0.000000   0.000000
    8  C  1  Y    0.135754  -0.000000  -0.000000   0.000000
    9  C  1  Z   -0.000000   1.108265   0.274870  -0.293489
   10  C  1 XX   -0.000000  -0.652527  -0.873160   1.569521
   11  C  1 YY   -0.000000  -0.652527  -0.873160   1.569521
   12  C  1 ZZ   -0.000000   1.188500  -0.595154   1.855041
   13  C  1 XY   -0.000000  -0.000000  -0.000000   0.000000
   14  C  1 XZ    0.816388  -0.000000  -0.000000   0.000000
   15  C  1 YZ    0.618372  -0.000000  -0.000000   0.000000
   16  S  2  S   -0.000000  -0.029418   0.150869   0.072474
   17  S  2  S   -0.000000   0.084689  -0.695457  -0.332832
   18  S  2  X    0.040041  -0.000000  -0.000000   0.000000
   19  S  2  Y    0.030329  -0.000000  -0.000000   0.000000
   20  S  2  Z   -0.000000  -0.169124  -0.012926  -0.059640
   21  S  2  S   -0.000000  -0.706186   5.687005   2.951042
   22  S  2  X   -0.147382  -0.000000  -0.000000   0.000000
   23  S  2  Y   -0.111634  -0.000000  -0.000000   0.000000
   24  S  2  Z   -0.000000   0.974779   0.102807   0.268928
   25  S  2  S   -0.000000  -1.110580  -0.666239   0.438515
   26  S  2  X   -0.084405  -0.000000  -0.000000   0.000000
   27  S  2  Y   -0.063932  -0.000000  -0.000000   0.000000
   28  S  2  Z   -0.000000   0.518976   0.223395  -0.409059
   29  S  2 XX   -0.000000   0.360996  -2.389674  -1.221071
   30  S  2 YY   -0.000000   0.360996  -2.389674  -1.221071
   31  S  2 ZZ   -0.000000  -0.622174  -2.468012  -1.552799
   32  S  2 XY   -0.000000  -0.000000  -0.000000   0.000000
   33  S  2 XZ    0.381261  -0.000000  -0.000000   0.000000
   34  S  2 YZ    0.288785  -0.000000  -0.000000   0.000000

 LZ VALUE ANALYSIS FOR THE MOS
 ----------------------------------------
 MO     1 (    1) HAS LZ(WEIGHT)= 0.00(100.0%) 
 MO     2 (    2) HAS LZ(WEIGHT)= 0.00(100.0%) 
 MO     3 (    3) HAS LZ(WEIGHT)= 0.00(100.0%) 
 MO     4 (    4) HAS LZ(WEIGHT)= 0.00(100.0%) 
 MO     5 (    5) HAS LZ(WEIGHT)=-1.00( 50.0%)  1.00( 50.0%) 
 MO     6 (    5) HAS LZ(WEIGHT)=-1.00( 50.0%)  1.00( 50.0%) 
 MO     7 (    6) HAS LZ(WEIGHT)= 0.00(100.0%) 
 MO     8 (    7) HAS LZ(WEIGHT)= 0.00(100.0%) 
 MO     9 (    8) HAS LZ(WEIGHT)= 0.00(100.0%) 
 MO    10 (    9) HAS LZ(WEIGHT)=-1.00( 50.0%)  1.00( 50.0%) 
 MO    11 (    9) HAS LZ(WEIGHT)=-1.00( 50.0%)  1.00( 50.0%) 
 MO    12 (   10) HAS LZ(WEIGHT)=-1.00( 50.0%)  1.00( 50.0%) 
 MO    13 (   10) HAS LZ(WEIGHT)=-1.00( 50.0%)  1.00( 50.0%) 
 MO    14 (   11) HAS LZ(WEIGHT)= 0.00(100.0%) 
 MO    15 (   12) HAS LZ(WEIGHT)= 0.00(100.0%) 
 MO    16 (   13) HAS LZ(WEIGHT)=-1.00( 50.0%)  1.00( 50.0%) 
 MO    17 (   13) HAS LZ(WEIGHT)=-1.00( 50.0%)  1.00( 50.0%) 
 MO    18 (   14) HAS LZ(WEIGHT)= 0.00(100.0%) 
 MO    19 (   15) HAS LZ(WEIGHT)= 0.00(100.0%) 
 MO    20 (   16) HAS LZ(WEIGHT)=-1.00( 50.0%)  1.00( 50.0%) 
 MO    21 (   16) HAS LZ(WEIGHT)=-1.00( 50.0%)  1.00( 50.0%) 
 MO    22 (   17) HAS LZ(WEIGHT)=-2.00( 50.0%)  2.00( 50.0%) 
 MO    23 (   17) HAS LZ(WEIGHT)=-2.00( 50.0%)  2.00( 50.0%) 
 MO    24 (   18) HAS LZ(WEIGHT)=-1.00( 50.0%)  1.00( 50.0%) 
 MO    25 (   18) HAS LZ(WEIGHT)=-1.00( 50.0%)  1.00( 50.0%) 
 MO    26 (   19) HAS LZ(WEIGHT)= 0.00(100.0%) 
 MO    27 (   20) HAS LZ(WEIGHT)= 0.00(100.0%) 
 MO    28 (   21) HAS LZ(WEIGHT)=-2.00( 50.0%)  2.00( 50.0%) 
 MO    29 (   21) HAS LZ(WEIGHT)=-2.00( 50.0%)  2.00( 50.0%) 
 MO    30 (   22) HAS LZ(WEIGHT)=-1.00( 50.0%)  1.00( 50.0%) 
 MO    31 (   22) HAS LZ(WEIGHT)=-1.00( 50.0%)  1.00( 50.0%) 
 MO    32 (   23) HAS LZ(WEIGHT)= 0.00(100.0%) 
 MO    33 (   24) HAS LZ(WEIGHT)= 0.00(100.0%) 
 MO    34 (   25) HAS LZ(WEIGHT)= 0.00(100.0%) 

  ----- BETA SET ----- 

          ------------
          EIGENVECTORS
          ------------

                      1          2          3          4          5
                  -91.9876   -11.3602    -9.0036    -6.6852    -6.6833
                     A          A          A          A          A   
    1  C  1  S    0.000042   0.996226  -0.000522   0.000752  -0.000000
    2  C  1  S    0.000160   0.023875  -0.000058   0.000169  -0.000000
    3  C  1  X   -0.000000   0.000000  -0.000000  -0.000000   0.000085
    4  C  1  Y   -0.000000   0.000000  -0.000000  -0.000000  -0.000309
    5  C  1  Z   -0.000013   0.003038  -0.000062  -0.000039  -0.000000
    6  C  1  S   -0.000204  -0.009729   0.000485   0.002197  -0.000000
    7  C  1  X   -0.000000   0.000000  -0.000000  -0.000000  -0.000128
    8  C  1  Y   -0.000000   0.000000  -0.000000  -0.000000   0.000464
    9  C  1  Z    0.000133  -0.003274  -0.000672   0.002756  -0.000000
   10  C  1 XX    0.000058  -0.001675  -0.000055  -0.000002  -0.000000
   11  C  1 YY    0.000058  -0.001675  -0.000055  -0.000002  -0.000000
   12  C  1 ZZ   -0.000118  -0.000139  -0.000216  -0.000382  -0.000000
   13  C  1 XY   -0.000000   0.000000  -0.000000  -0.000000  -0.000000
   14  C  1 XZ   -0.000000   0.000000  -0.000000  -0.000000   0.000082
   15  C  1 YZ   -0.000000   0.000000  -0.000000  -0.000000  -0.000298
   16  S  2  S    0.996256  -0.000025  -0.281792  -0.000308  -0.000000
   17  S  2  S    0.014274   0.000061   1.030185   0.001264  -0.000000
   18  S  2  X   -0.000000   0.000000  -0.000000  -0.000000  -0.264591
   19  S  2  Y   -0.000000   0.000000  -0.000000  -0.000000   0.957607
   20  S  2  Z   -0.000038  -0.000090  -0.000308   0.993005  -0.000000
   21  S  2  S   -0.019945   0.000678   0.024156  -0.002112  -0.000000
   22  S  2  X   -0.000000   0.000000  -0.000000  -0.000000  -0.005768
   23  S  2  Y   -0.000000   0.000000  -0.000000  -0.000000   0.020875
   24  S  2  Z    0.000036   0.000518  -0.001209   0.023451  -0.000000
   25  S  2  S    0.002388   0.004455  -0.005605  -0.002314  -0.000000
   26  S  2  X   -0.000000   0.000000  -0.000000  -0.000000   0.001441
   27  S  2  Y   -0.000000   0.000000  -0.000000  -0.000000  -0.005215
   28  S  2  Z   -0.000049  -0.002830   0.000350  -0.004037  -0.000000
   29  S  2 XX    0.006951  -0.000118  -0.001706   0.000593  -0.000000
   30  S  2 YY    0.006951  -0.000118  -0.001706   0.000593  -0.000000
   31  S  2 ZZ    0.006971  -0.001215  -0.000884  -0.000900  -0.000000
   32  S  2 XY   -0.000000   0.000000  -0.000000  -0.000000  -0.000000
   33  S  2 XZ   -0.000000   0.000000  -0.000000  -0.000000   0.000005
   34  S  2 YZ   -0.000000   0.000000  -0.000000  -0.000000  -0.000017

                      6          7          8          9         10
                   -6.6833    -1.1008    -0.6905    -0.4695    -0.4582
                     A          A          A          A          A   
    1  C  1  S   -0.000000  -0.131989   0.149676   0.098053  -0.000000
    2  C  1  S   -0.000000   0.269971  -0.324464  -0.199319  -0.000000
    3  C  1  X   -0.000309   0.000000   0.000000  -0.000000   0.251718
    4  C  1  Y   -0.000085   0.000000   0.000000  -0.000000   0.091508
    5  C  1  Z   -0.000000   0.181333   0.001920   0.476485  -0.000000
    6  C  1  S   -0.000000   0.189255  -0.386644  -0.397140  -0.000000
    7  C  1  X    0.000464   0.000000   0.000000  -0.000000   0.166510
    8  C  1  Y    0.000128   0.000000   0.000000  -0.000000   0.060532
    9  C  1  Z   -0.000000   0.031279   0.016628   0.268087  -0.000000
   10  C  1 XX   -0.000000  -0.012334   0.007313  -0.006132  -0.000000
   11  C  1 YY   -0.000000  -0.012334   0.007313  -0.006132  -0.000000
   12  C  1 ZZ   -0.000000   0.025606  -0.000317   0.041153  -0.000000
   13  C  1 XY   -0.000000   0.000000   0.000000  -0.000000  -0.000000
   14  C  1 XZ   -0.000298   0.000000   0.000000  -0.000000   0.036759
   15  C  1 YZ   -0.000082   0.000000   0.000000  -0.000000   0.013363
   16  S  2  S   -0.000000   0.059612   0.047451  -0.001284  -0.000000
   17  S  2  S   -0.000000  -0.274949  -0.219887   0.013703  -0.000000
   18  S  2  X    0.957607   0.000000   0.000000  -0.000000  -0.212409
   19  S  2  Y    0.264591   0.000000   0.000000  -0.000000  -0.077218
   20  S  2  Z   -0.000000   0.080207  -0.147203   0.161488  -0.000000
   21  S  2  S   -0.000000   0.542992   0.477753   0.009604  -0.000000
   22  S  2  X    0.020875   0.000000   0.000000  -0.000000   0.559152
   23  S  2  Y    0.005768   0.000000   0.000000  -0.000000   0.203271
   24  S  2  Z   -0.000000  -0.171950   0.370955  -0.421064  -0.000000
   25  S  2  S   -0.000000   0.150204   0.323223  -0.195682  -0.000000
   26  S  2  X   -0.005215   0.000000   0.000000  -0.000000   0.289815
   27  S  2  Y   -0.001441   0.000000   0.000000  -0.000000   0.105357
   28  S  2  Z   -0.000000   0.007164   0.076176  -0.090099  -0.000000
   29  S  2 XX   -0.000000  -0.017511   0.019491  -0.018269  -0.000000
   30  S  2 YY   -0.000000  -0.017511   0.019491  -0.018269  -0.000000
   31  S  2 ZZ   -0.000000   0.048636  -0.040108   0.032824  -0.000000
   32  S  2 XY   -0.000000   0.000000   0.000000  -0.000000  -0.000000
   33  S  2 XZ   -0.000017   0.000000   0.000000  -0.000000  -0.051417
   34  S  2 YZ   -0.000005   0.000000   0.000000  -0.000000  -0.018692

                     11         12         13         14         15
                   -0.4582     0.0702     0.0702     0.2263     0.4221
                     A          A          A          A          A   
    1  C  1  S   -0.000000   0.000000   0.000000  -0.101641   0.002914
    2  C  1  S   -0.000000   0.000000   0.000000   0.133468  -0.089294
    3  C  1  X   -0.091508  -0.115210   0.434215   0.000000   0.000000
    4  C  1  Y    0.251718   0.434215   0.115210   0.000000   0.000000
    5  C  1  Z   -0.000000   0.000000   0.000000   0.223399   0.089174
    6  C  1  S   -0.000000   0.000000   0.000000   1.934022  -0.251080
    7  C  1  X   -0.060532  -0.171159   0.645082   0.000000   0.000000
    8  C  1  Y    0.166510   0.645082   0.171159   0.000000   0.000000
    9  C  1  Z   -0.000000   0.000000   0.000000   0.920144  -0.009312
   10  C  1 XX   -0.000000   0.000000   0.000000  -0.022941   0.007402
   11  C  1 YY   -0.000000   0.000000   0.000000  -0.022941   0.007402
   12  C  1 ZZ   -0.000000   0.000000   0.000000   0.007295  -0.038106
   13  C  1 XY   -0.000000   0.000000   0.000000   0.000000   0.000000
   14  C  1 XZ   -0.013363  -0.004380   0.016508   0.000000   0.000000
   15  C  1 YZ    0.036759   0.016508   0.004380   0.000000   0.000000
   16  S  2  S   -0.000000   0.000000   0.000000  -0.008666  -0.067957
   17  S  2  S   -0.000000   0.000000   0.000000   0.084753   0.094593
   18  S  2  X    0.077218  -0.032845   0.123789   0.000000   0.000000
   19  S  2  Y   -0.212409   0.123789   0.032845   0.000000   0.000000
   20  S  2  Z   -0.000000   0.000000   0.000000  -0.044649   0.066020
   21  S  2  S   -0.000000   0.000000   0.000000   0.042572  -1.481959
   22  S  2  X   -0.203271   0.088753  -0.334503   0.000000   0.000000
   23  S  2  Y    0.559152  -0.334503  -0.088753   0.000000   0.000000
   24  S  2  Z   -0.000000   0.000000   0.000000   0.098046  -0.263071
   25  S  2  S   -0.000000   0.000000   0.000000  -1.765045   1.864130
   26  S  2  X   -0.105357   0.127109  -0.479062   0.000000   0.000000
   27  S  2  Y    0.289815  -0.479062  -0.127109   0.000000   0.000000
   28  S  2  Z   -0.000000   0.000000   0.000000   1.831909   0.126468
   29  S  2 XX   -0.000000   0.000000   0.000000  -0.071453  -0.062600
   30  S  2 YY   -0.000000   0.000000   0.000000  -0.071453  -0.062600
   31  S  2 ZZ   -0.000000   0.000000   0.000000   0.166864  -0.102100
   32  S  2 XY   -0.000000   0.000000   0.000000   0.000000   0.000000
   33  S  2 XZ    0.018692   0.025534  -0.096236   0.000000   0.000000
   34  S  2 YZ   -0.051417  -0.096236  -0.025534   0.000000   0.000000

                     16         17         18         19         20
                    0.5052     0.5052     0.6124     0.7173     0.8120
                     A          A          A          A          A   
    1  C  1  S    0.000000  -0.000000  -0.070889  -0.037626   0.000000
    2  C  1  S    0.000000  -0.000000   0.117459   0.213659   0.000000
    3  C  1  X   -0.087895   0.001244  -0.000000   0.000000  -1.093976
    4  C  1  Y   -0.001244  -0.087895  -0.000000   0.000000   0.103282
    5  C  1  Z    0.000000  -0.000000   0.009991  -0.886890   0.000000
    6  C  1  S    0.000000  -0.000000   0.317777   0.619932   0.000000
    7  C  1  X   -0.039794   0.000563  -0.000000   0.000000   1.250505
    8  C  1  Y   -0.000563  -0.039794  -0.000000   0.000000  -0.118060
    9  C  1  Z    0.000000  -0.000000   1.064787   1.371255   0.000000
   10  C  1 XX    0.000000  -0.000000   0.043271   0.036603   0.000000
   11  C  1 YY    0.000000  -0.000000   0.043271   0.036603   0.000000
   12  C  1 ZZ    0.000000  -0.000000  -0.082387   0.066050   0.000000
   13  C  1 XY    0.000000  -0.000000  -0.000000   0.000000   0.000000
   14  C  1 XZ   -0.052468   0.000742  -0.000000   0.000000  -0.043615
   15  C  1 YZ   -0.000742  -0.052468  -0.000000   0.000000   0.004118
   16  S  2  S    0.000000  -0.000000  -0.020698   0.008722   0.000000
   17  S  2  S    0.000000  -0.000000   0.027356  -0.052414   0.000000
   18  S  2  X    0.285393  -0.004038  -0.000000   0.000000  -0.052133
   19  S  2  Y    0.004038   0.285393  -0.000000   0.000000   0.004922
   20  S  2  Z    0.000000  -0.000000  -0.288584   0.108348   0.000000
   21  S  2  S    0.000000  -0.000000  -0.450790   0.092996   0.000000
   22  S  2  X   -1.166244   0.016500  -0.000000   0.000000   0.191606
   23  S  2  Y   -0.016500  -1.166244  -0.000000   0.000000  -0.018089
   24  S  2  Z    0.000000  -0.000000   1.236849  -0.332822   0.000000
   25  S  2  S    0.000000  -0.000000  -0.339018  -1.004038   0.000000
   26  S  2  X    1.263949  -0.017882  -0.000000   0.000000  -0.528763
   27  S  2  Y    0.017882   1.263949  -0.000000   0.000000   0.049920
   28  S  2  Z    0.000000  -0.000000  -0.664312   0.834399   0.000000
   29  S  2 XX    0.000000  -0.000000  -0.066016   0.153366   0.000000
   30  S  2 YY    0.000000  -0.000000  -0.066016   0.153366   0.000000
   31  S  2 ZZ    0.000000  -0.000000   0.048217  -0.368525   0.000000
   32  S  2 XY    0.000000  -0.000000  -0.000000   0.000000   0.000000
   33  S  2 XZ    0.079851  -0.001130  -0.000000   0.000000   0.058086
   34  S  2 YZ    0.001130   0.079851  -0.000000   0.000000  -0.005484

                     21         22         23         24         25
                    0.8120     0.9927     0.9927     1.0062     1.0062
                     A          A          A          A          A   
    1  C  1  S    0.000000  -0.000000   0.000000  -0.000000  -0.000000
    2  C  1  S    0.000000  -0.000000   0.000000  -0.000000  -0.000000
    3  C  1  X   -0.103282  -0.000000   0.000000   0.191098   0.011574
    4  C  1  Y   -1.093976  -0.000000   0.000000  -0.011574   0.191098
    5  C  1  Z    0.000000  -0.000000   0.000000  -0.000000  -0.000000
    6  C  1  S    0.000000  -0.000000   0.000000  -0.000000  -0.000000
    7  C  1  X    0.118060  -0.000000   0.000000   0.199041   0.012055
    8  C  1  Y    1.250505  -0.000000   0.000000  -0.012055   0.199041
    9  C  1  Z    0.000000  -0.000000   0.000000  -0.000000  -0.000000
   10  C  1 XX    0.000000  -0.000010  -0.071187  -0.000000  -0.000000
   11  C  1 YY    0.000000   0.000010   0.071187  -0.000000  -0.000000
   12  C  1 ZZ    0.000000  -0.000000   0.000000  -0.000000  -0.000000
   13  C  1 XY    0.000000   0.082200  -0.000012  -0.000000  -0.000000
   14  C  1 XZ   -0.004118  -0.000000   0.000000  -0.207803  -0.012585
   15  C  1 YZ   -0.043615  -0.000000   0.000000   0.012585  -0.207803
   16  S  2  S    0.000000  -0.000000   0.000000  -0.000000  -0.000000
   17  S  2  S    0.000000  -0.000000   0.000000  -0.000000  -0.000000
   18  S  2  X   -0.004922  -0.000000   0.000000  -0.038794  -0.002349
   19  S  2  Y   -0.052133  -0.000000   0.000000   0.002349  -0.038794
   20  S  2  Z    0.000000  -0.000000   0.000000  -0.000000  -0.000000
   21  S  2  S    0.000000  -0.000000   0.000000  -0.000000  -0.000000
   22  S  2  X    0.018089  -0.000000   0.000000   0.161584   0.009786
   23  S  2  Y    0.191606  -0.000000   0.000000  -0.009786   0.161584
   24  S  2  Z    0.000000  -0.000000   0.000000  -0.000000  -0.000000
   25  S  2  S    0.000000  -0.000000   0.000000  -0.000000  -0.000000
   26  S  2  X   -0.049920  -0.000000   0.000000  -0.244128  -0.014785
   27  S  2  Y   -0.528763  -0.000000   0.000000   0.014785  -0.244128
   28  S  2  Z    0.000000  -0.000000   0.000000  -0.000000  -0.000000
   29  S  2 XX    0.000000  -0.000126  -0.859828  -0.000000  -0.000000
   30  S  2 YY    0.000000   0.000126   0.859828  -0.000000  -0.000000
   31  S  2 ZZ    0.000000  -0.000000   0.000000  -0.000000  -0.000000
   32  S  2 XY    0.000000   0.992844  -0.000145  -0.000000  -0.000000
   33  S  2 XZ    0.005484  -0.000000   0.000000   0.932017   0.056446
   34  S  2 YZ    0.058086  -0.000000   0.000000  -0.056446   0.932017

                     26         27         28         29         30
                    1.0787     1.4582     1.9577     1.9577     2.1873
                     A          A          A          A          A   
    1  C  1  S   -0.056902   0.034500  -0.000000  -0.000000  -0.000000
    2  C  1  S   -1.800848  -0.660543  -0.000000  -0.000000  -0.000000
    3  C  1  X    0.000000   0.000000  -0.000000  -0.000000   0.026362
    4  C  1  Y    0.000000   0.000000  -0.000000  -0.000000  -0.034804
    5  C  1  Z   -0.095446  -0.804503  -0.000000  -0.000000  -0.000000
    6  C  1  S    4.527454   0.387062  -0.000000  -0.000000  -0.000000
    7  C  1  X    0.000000   0.000000  -0.000000  -0.000000  -0.135754
    8  C  1  Y    0.000000   0.000000  -0.000000  -0.000000   0.179225
    9  C  1  Z    1.646691   0.480605  -0.000000  -0.000000  -0.000000
   10  C  1 XX   -0.075608  -0.123971   0.000002   0.864014  -0.000000
   11  C  1 YY   -0.075608  -0.123971  -0.000002  -0.864014  -0.000000
   12  C  1 ZZ   -0.190829   0.098942  -0.000000  -0.000000  -0.000000
   13  C  1 XY    0.000000   0.000000   0.997678  -0.000002  -0.000000
   14  C  1 XZ    0.000000   0.000000  -0.000000  -0.000000  -0.618372
   15  C  1 YZ    0.000000   0.000000  -0.000000  -0.000000   0.816388
   16  S  2  S    0.010640   0.005905  -0.000000  -0.000000  -0.000000
   17  S  2  S   -0.017618  -0.073753  -0.000000  -0.000000  -0.000000
   18  S  2  X    0.000000   0.000000  -0.000000  -0.000000  -0.030329
   19  S  2  Y    0.000000   0.000000  -0.000000  -0.000000   0.040041
   20  S  2  Z    0.010324   0.076158  -0.000000  -0.000000  -0.000000
   21  S  2  S    0.231599  -0.031476  -0.000000  -0.000000  -0.000000
   22  S  2  X    0.000000   0.000000  -0.000000  -0.000000   0.111634
   23  S  2  Y    0.000000   0.000000  -0.000000  -0.000000  -0.147382
   24  S  2  Z    0.150848  -0.217857  -0.000000  -0.000000  -0.000000
   25  S  2  S   -2.810144   0.058636  -0.000000  -0.000000  -0.000000
   26  S  2  X    0.000000   0.000000  -0.000000  -0.000000   0.063932
   27  S  2  Y    0.000000   0.000000  -0.000000  -0.000000  -0.084405
   28  S  2  Z    1.770482  -0.102950  -0.000000  -0.000000  -0.000000
   29  S  2 XX    0.158075  -0.512797  -0.000000  -0.110830  -0.000000
   30  S  2 YY    0.158075  -0.512797   0.000000   0.110830  -0.000000
   31  S  2 ZZ   -0.314984   0.914011  -0.000000  -0.000000  -0.000000
   32  S  2 XY    0.000000   0.000000  -0.127976   0.000000  -0.000000
   33  S  2 XZ    0.000000   0.000000  -0.000000  -0.000000  -0.288785
   34  S  2 YZ    0.000000   0.000000  -0.000000  -0.000000   0.381261

                     31         32         33         34
                    2.1873     2.6931     4.2975     4.4084
                     A          A          A          A   
    1  C  1  S   -0.000000  -0.083116  -0.228234   0.400597
    2  C  1  S   -0.000000  -0.278727   1.314362  -2.784355
    3  C  1  X   -0.034804  -0.000000  -0.000000   0.000000
    4  C  1  Y   -0.026362  -0.000000  -0.000000   0.000000
    5  C  1  Z   -0.000000   0.279739   0.068892   0.237379
    6  C  1  S   -0.000000   1.894591   0.849634  -1.334924
    7  C  1  X    0.179225  -0.000000  -0.000000   0.000000
    8  C  1  Y    0.135754  -0.000000  -0.000000   0.000000
    9  C  1  Z   -0.000000   1.108265   0.274870  -0.293489
   10  C  1 XX   -0.000000  -0.652527  -0.873160   1.569521
   11  C  1 YY   -0.000000  -0.652527  -0.873160   1.569521
   12  C  1 ZZ   -0.000000   1.188500  -0.595154   1.855041
   13  C  1 XY   -0.000000  -0.000000  -0.000000   0.000000
   14  C  1 XZ    0.816388  -0.000000  -0.000000   0.000000
   15  C  1 YZ    0.618372  -0.000000  -0.000000   0.000000
   16  S  2  S   -0.000000  -0.029418   0.150869   0.072474
   17  S  2  S   -0.000000   0.084689  -0.695457  -0.332832
   18  S  2  X    0.040041  -0.000000  -0.000000   0.000000
   19  S  2  Y    0.030329  -0.000000  -0.000000   0.000000
   20  S  2  Z   -0.000000  -0.169124  -0.012926  -0.059640
   21  S  2  S   -0.000000  -0.706186   5.687005   2.951042
   22  S  2  X   -0.147382  -0.000000  -0.000000   0.000000
   23  S  2  Y   -0.111634  -0.000000  -0.000000   0.000000
   24  S  2  Z   -0.000000   0.974779   0.102807   0.268928
   25  S  2  S   -0.000000  -1.110580  -0.666239   0.438515
   26  S  2  X   -0.084405  -0.000000  -0.000000   0.000000
   27  S  2  Y   -0.063932  -0.000000  -0.000000   0.000000
   28  S  2  Z   -0.000000   0.518976   0.223395  -0.409059
   29  S  2 XX   -0.000000   0.360996  -2.389674  -1.221071
   30  S  2 YY   -0.000000   0.360996  -2.389674  -1.221071
   31  S  2 ZZ   -0.000000  -0.622174  -2.468012  -1.552799
   32  S  2 XY   -0.000000  -0.000000  -0.000000   0.000000
   33  S  2 XZ    0.381261  -0.000000  -0.000000   0.000000
   34  S  2 YZ    0.288785  -0.000000  -0.000000   0.000000
 ...... END OF UHF CALCULATION ......
 STEP CPU TIME =     0.01 TOTAL CPU TIME =          0.0 (      0.0 MIN)
 TOTAL WALL CLOCK TIME=          0.0 SECONDS, CPU UTILIZATION IS    97.57%

     ----------------------------------------------------------------
     PROPERTY VALUES FOR THE UHF   SELF-CONSISTENT FIELD WAVEFUNCTION
     ----------------------------------------------------------------

          -----------------
          ENERGY COMPONENTS
          -----------------

         WAVEFUNCTION NORMALIZATION =       1.0000000000

                ONE ELECTRON ENERGY =    -665.1649074191
                TWO ELECTRON ENERGY =     197.0019382448
           NUCLEAR REPULSION ENERGY =      32.8594461593
                                      ------------------
                       TOTAL ENERGY =    -435.3035230150

 ELECTRON-ELECTRON POTENTIAL ENERGY =     197.0019382448
  NUCLEUS-ELECTRON POTENTIAL ENERGY =   -1100.2512781281
   NUCLEUS-NUCLEUS POTENTIAL ENERGY =      32.8594461593
                                      ------------------
             TOTAL POTENTIAL ENERGY =    -870.3898937240
               TOTAL KINETIC ENERGY =     435.0863707090
                 VIRIAL RATIO (V/T) =       2.0004991016

  ...... PI ENERGY ANALYSIS ......

 ENERGY ANALYSIS:
            FOCK ENERGY=   -271.1610279973
          BARE H ENERGY=   -665.1649074191
     ELECTRONIC ENERGY =   -468.1629677082
         KINETIC ENERGY=    435.0863707090
          N-N REPULSION=     32.8594461593
           TOTAL ENERGY=   -435.3035215489
        SIGMA PART(1+2)=   -370.3077713647
               (K,V1,2)=    358.6515510550   -856.6723143447    127.7129919250
           PI PART(1+2)=    -97.8551963435
               (K,V1,2)=     76.4348196539   -243.5789637834     69.2889477860
  SIGMA SKELETON, ERROR=   -337.4483252053     -0.0000000000
             MIXED PART= 0.00000E+00 0.00000E+00 0.00000E+00 0.00000E+00
 ...... END OF PI ENERGY ANALYSIS ......

          ---------------------------------------
          MULLIKEN AND LOWDIN POPULATION ANALYSES
          ---------------------------------------

     ATOMIC MULLIKEN POPULATION IN EACH MOLECULAR ORBITAL
        ALPHA ORBITALS

                      1          2          3          4          5

                  1.000000   1.000000   1.000000   1.000000   1.000000

    1             0.000001   0.999485  -0.000100  -0.000206   0.000009
    2             0.999999   0.000515   1.000100   1.000206   0.999991

                      6          7          8          9         10

                  1.000000   1.000000   1.000000   1.000000   1.000000

    1             0.000009   0.389194   0.363937   0.742499   0.258177
    2             0.999991   0.610806   0.636063   0.257501   0.741823

                     11

                  1.000000

    1             0.258177
    2             0.741823

     ATOMIC MULLIKEN POPULATION IN EACH MOLECULAR ORBITAL
         BETA ORBITALS

                      1          2          3          4          5

                  1.000000   1.000000   1.000000   1.000000   1.000000

    1             0.000001   0.999485  -0.000100  -0.000206   0.000009
    2             0.999999   0.000515   1.000100   1.000206   0.999991

                      6          7          8          9         10

                  1.000000   1.000000   1.000000   1.000000   1.000000

    1             0.000009   0.389194   0.363937   0.742499   0.258177
    2             0.999991   0.610806   0.636063   0.257501   0.741823

                     11

                  1.000000

    1             0.258177
    2             0.741823

     ATOMIC SPIN POPULATION (ALPHA MINUS BETA)
       ATOM         MULL.POP.                    LOW.POP.
    1 C             0.000000                     0.000000
    2 S             0.000000                     0.000000


          ********* ALL ELECTRONS ********

               ----- POPULATIONS IN EACH AO -----
                             MULLIKEN      LOWDIN
              1  C  1  S      1.99803     1.98712
              2  C  1  S      0.84606     0.49887
              3  C  1  X      0.26632     0.23958
              4  C  1  Y      0.26632     0.23958
              5  C  1  Z      0.85789     0.82324
              6  C  1  S      0.95470     0.57457
              7  C  1  X      0.23696     0.30038
              8  C  1  Y      0.23696     0.30038
              9  C  1  Z      0.34553     0.51341
             10  C  1 XX     -0.01301     0.18753
             11  C  1 YY     -0.01301     0.18753
             12  C  1 ZZ      0.01343     0.23054
             13  C  1 XY      0.00000     0.00000
             14  C  1 XZ      0.01309     0.01885
             15  C  1 YZ      0.01309     0.01885
             16  S  2  S      1.99891     1.99857
             17  S  2  S      1.99853     1.98281
             18  S  2  X      1.99265     1.96699
             19  S  2  Y      1.99265     1.96699
             20  S  2  Z      1.99279     1.96721
             21  S  2  S      1.31720     0.58502
             22  S  2  X      0.97301     0.88982
             23  S  2  Y      0.97301     0.88982
             24  S  2  Z      0.97944     0.87149
             25  S  2  S      0.55805     0.50389
             26  S  2  X      0.50336     0.57129
             27  S  2  Y      0.50336     0.57129
             28  S  2  Z      0.11724     0.34407
             29  S  2 XX      0.00009     0.23470
             30  S  2 YY      0.00009     0.23470
             31  S  2 ZZ      0.04804     0.27474
             32  S  2 XY      0.00000     0.00000
             33  S  2 XZ      0.01461     0.01310
             34  S  2 YZ      0.01461     0.01310

          ----- MULLIKEN ATOMIC OVERLAP POPULATIONS -----
          (OFF-DIAGONAL ELEMENTS NEED TO BE MULTIPLIED BY 2)

             1           2

    1    5.4087774
    2    0.6135856  15.3640514

          TOTAL MULLIKEN AND LOWDIN ATOMIC POPULATIONS
       ATOM         MULL.POP.    CHARGE          LOW.POP.     CHARGE
    1 C             6.022363   -0.022363         6.120407   -0.120407
    2 S            15.977637    0.022363        15.879593    0.120407

          -------------------------------
          BOND ORDER AND VALENCE ANALYSIS     BOND ORDER THRESHOLD=0.050
          -------------------------------

                   BOND                       BOND                       BOND
  ATOM PAIR DIST  ORDER      ATOM PAIR DIST  ORDER      ATOM PAIR DIST  ORDER
    1   2  1.546  2.461

                       TOTAL       BONDED        FREE
      ATOM            VALENCE     VALENCE     VALENCE
    1 C                 2.461       2.461       0.000
    2 S                 2.461       2.461      -0.000

          -----------------------------------------
          ATOMIC SPIN DENSITY AT THE NUCLEUS (A.U.)
          -----------------------------------------
                            SPIN DENS    ALPHA DENS     BETA DENS
    1  C            6.0     0.0000000      59.70395      59.70395
    2  S           16.0     0.0000000    1252.37370    1252.37370

          ---------------------
          ELECTROSTATIC MOMENTS
          ---------------------

 POINT   1           X           Y           Z (BOHR)    CHARGE
                 0.000000    0.000000    0.001674       -0.00 (A.U.)
         DX          DY          DZ         /D/  (DEBYE)
     0.000000    0.000000    1.195539    1.195539
 ...... END OF PROPERTY EVALUATION ......
 STEP CPU TIME =     0.00 TOTAL CPU TIME =          0.0 (      0.0 MIN)
 TOTAL WALL CLOCK TIME=          0.0 SECONDS, CPU UTILIZATION IS    97.72%

 BEGINNING ONE ELECTRON GRADIENT...
 ..... END OF 1-ELECTRON GRADIENT ......
 STEP CPU TIME =     0.00 TOTAL CPU TIME =          0.0 (      0.0 MIN)
 TOTAL WALL CLOCK TIME=          0.0 SECONDS, CPU UTILIZATION IS    97.78%

          ----------------------
          GRADIENT OF THE ENERGY
          ----------------------

 THE MINIMUM MEMORY REQUIRED FOR THIS RUN IS      75631 WORDS.
 USING     990181 WORDS FOR 2E- DERIVATIVE INTEGRAL CONTRIBUTIONS.
 THE COARSE/FINE SCHWARZ SCREENINGS SKIPPED            0/           0 BLOCKS.
 THE NUMBER OF GRADIENT INTEGRAL BLOCKS COMPUTED WAS       860
 ...... END OF 2-ELECTRON GRADIENT ......
 STEP CPU TIME =     0.02 TOTAL CPU TIME =          0.0 (      0.0 MIN)
 TOTAL WALL CLOCK TIME=          0.0 SECONDS, CPU UTILIZATION IS    98.90%

          NSERCH=  0     ENERGY=    -435.3035230

                                 -----------------------
                                 GRADIENT (HARTREE/BOHR)
                                 -----------------------
        ATOM     ZNUC       DE/DX         DE/DY         DE/DZ
 --------------------------------------------------------------
    1  C            6.0     0.0000000     0.0000000    -0.0311616
    2  S           16.0     0.0000000     0.0000000     0.0311616

          MAXIMUM GRADIENT = 0.0311616    RMS GRADIENT = 0.0179911

 NSERCH:   0  E=     -435.3035230150  GRAD. MAX=  0.0311616  R.M.S.=  0.0179911

          FORCE CONSTANT MATRIX NOT UPDATED --- TAKING FIRST STEP
          MIN SEARCH, CORRECT HESSIAN, TRYING PURE NR STEP
               NR STEP HAS LENGTH         =   0.036627
          RADIUS OF STEP TAKEN=   0.03663  CURRENT TRUST RADIUS=   0.30000

 BEGINNING GEOMETRY SEARCH POINT NSERCH=   1 ...

 COORDINATES OF ALL ATOMS ARE (ANGS)
   ATOM   CHARGE       X              Y              Z
 ------------------------------------------------------------
 C           6.0   0.0000000000   0.0000000000  -1.1095114529
 S          16.0   0.0000000000   0.0000000000   0.4090874529

          INTERNUCLEAR DISTANCES (ANGS.)
          ------------------------------

                1 C          2 S     

   1 C       0.0000000    1.5185989 *
   2 S       1.5185989 *  0.0000000  

  * ... LESS THAN  3.000

 ...... END OF ONE-ELECTRON INTEGRALS ......
 STEP CPU TIME =     0.00 TOTAL CPU TIME =          0.0 (      0.0 MIN)
 TOTAL WALL CLOCK TIME=          0.0 SECONDS, CPU UTILIZATION IS    98.90%
 TOTAL NUMBER OF NONZERO TWO-ELECTRON INTEGRALS =               46351
          4 INTEGRAL RECORDS WERE STORED ON DISK FILE  8.
  ...... END OF TWO-ELECTRON INTEGRALS .....
 STEP CPU TIME =     0.00 TOTAL CPU TIME =          0.0 (      0.0 MIN)
 TOTAL WALL CLOCK TIME=          0.1 SECONDS, CPU UTILIZATION IS    98.89%

          ---------------------------
                  UHF SCF CALCULATION
          ---------------------------
     DENSITY MATRIX CONV=  5.00E-05

 ITER EX      TOTAL ENERGY        E CHANGE  DENSITY CHANGE    ORB. GRAD 
          ---------------START SECOND ORDER SCF---------------
   1  0     -435.3040236966  -435.3040236966   0.008839146   0.003436504
   2  1     -435.3042689571    -0.0002452606   0.006249093   0.002452001
   3  2     -435.3043084908    -0.0000395337   0.003242518   0.000697997
   4  3     -435.3043139841    -0.0000054933   0.000648946   0.000132014
   5  4     -435.3043141894    -0.0000002052   0.000162127   0.000039941
   6  5     -435.3043142106    -0.0000000212   0.000059694   0.000015621
   7  6     -435.3043142132    -0.0000000026   0.000020408   0.000004723
   8  7     -435.3043142134    -0.0000000002   0.000005529   0.000000877

          -----------------
          DENSITY CONVERGED
          -----------------
     TIME TO FORM FOCK OPERATORS=       0.0 SECONDS (       0.0 SEC/ITER)
     TIME TO SOLVE SCF EQUATIONS=       0.0 SECONDS (       0.0 SEC/ITER)

 FINAL UHF ENERGY IS     -435.3043142134 AFTER   8 ITERATIONS

          --------------------
          SPIN SZ   =    0.000
          S-SQUARED =    0.000
          --------------------

 LZ VALUE ANALYSIS FOR THE MOS
 ----------------------------------------
 MO     1 (    1) HAS LZ(WEIGHT)= 0.00(100.0%) 
 MO     2 (    2) HAS LZ(WEIGHT)= 0.00(100.0%) 
 MO     3 (    3) HAS LZ(WEIGHT)= 0.00(100.0%) 
 MO     4 (    4) HAS LZ(WEIGHT)= 0.00(100.0%) 
 MO     5 (    5) HAS LZ(WEIGHT)=-1.00( 50.0%)  1.00( 50.0%) 
 MO     6 (    5) HAS LZ(WEIGHT)=-1.00( 50.0%)  1.00( 50.0%) 
 MO     7 (    6) HAS LZ(WEIGHT)= 0.00(100.0%) 
 MO     8 (    7) HAS LZ(WEIGHT)= 0.00(100.0%) 
 MO     9 (    8) HAS LZ(WEIGHT)= 0.00(100.0%) 
 MO    10 (    9) HAS LZ(WEIGHT)=-1.00( 50.0%)  1.00( 50.0%) 
 MO    11 (    9) HAS LZ(WEIGHT)=-1.00( 50.0%)  1.00( 50.0%) 
 MO    12 (   10) HAS LZ(WEIGHT)=-1.00( 50.0%)  1.00( 50.0%) 
 MO    13 (   10) HAS LZ(WEIGHT)=-1.00( 50.0%)  1.00( 50.0%) 
 MO    14 (   11) HAS LZ(WEIGHT)= 0.00(100.0%) 
 MO    15 (   12) HAS LZ(WEIGHT)= 0.00(100.0%) 
 MO    16 (   13) HAS LZ(WEIGHT)=-1.00( 50.0%)  1.00( 50.0%) 
 MO    17 (   13) HAS LZ(WEIGHT)=-1.00( 50.0%)  1.00( 50.0%) 
 MO    18 (   14) HAS LZ(WEIGHT)= 0.00(100.0%) 
 MO    19 (   15) HAS LZ(WEIGHT)= 0.00(100.0%) 
 MO    20 (   16) HAS LZ(WEIGHT)=-1.00( 50.0%)  1.00( 50.0%) 
 MO    21 (   16) HAS LZ(WEIGHT)=-1.00( 50.0%)  1.00( 50.0%) 
 MO    22 (   17) HAS LZ(WEIGHT)=-2.00( 50.0%)  2.00( 50.0%) 
 MO    23 (   17) HAS LZ(WEIGHT)=-2.00( 50.0%)  2.00( 50.0%) 
 MO    24 (   18) HAS LZ(WEIGHT)=-1.00( 50.0%)  1.00( 50.0%) 
 MO    25 (   18) HAS LZ(WEIGHT)=-1.00( 50.0%)  1.00( 50.0%) 
 MO    26 (   19) HAS LZ(WEIGHT)= 0.00(100.0%) 
 MO    27 (   20) HAS LZ(WEIGHT)= 0.00(100.0%) 
 MO    28 (   21) HAS LZ(WEIGHT)=-2.00( 50.0%)  2.00( 50.0%) 
 MO    29 (   21) HAS LZ(WEIGHT)=-2.00( 50.0%)  2.00( 50.0%) 
 MO    30 (   22) HAS LZ(WEIGHT)=-1.00( 50.0%)  1.00( 50.0%) 
 MO    31 (   22) HAS LZ(WEIGHT)=-1.00( 50.0%)  1.00( 50.0%) 
 MO    32 (   23) HAS LZ(WEIGHT)= 0.00(100.0%) 
 MO    33 (   24) HAS LZ(WEIGHT)= 0.00(100.0%) 
 MO    34 (   25) HAS LZ(WEIGHT)= 0.00(100.0%) 

 LZ VALUE ANALYSIS FOR THE MOS
 ----------------------------------------
 MO     1 (    1) HAS LZ(WEIGHT)= 0.00(100.0%) 
 MO     2 (    2) HAS LZ(WEIGHT)= 0.00(100.0%) 
 MO     3 (    3) HAS LZ(WEIGHT)= 0.00(100.0%) 
 MO     4 (    4) HAS LZ(WEIGHT)= 0.00(100.0%) 
 MO     5 (    5) HAS LZ(WEIGHT)=-1.00( 50.0%)  1.00( 50.0%) 
 MO     6 (    5) HAS LZ(WEIGHT)=-1.00( 50.0%)  1.00( 50.0%) 
 MO     7 (    6) HAS LZ(WEIGHT)= 0.00(100.0%) 
 MO     8 (    7) HAS LZ(WEIGHT)= 0.00(100.0%) 
 MO     9 (    8) HAS LZ(WEIGHT)= 0.00(100.0%) 
 MO    10 (    9) HAS LZ(WEIGHT)=-1.00( 50.0%)  1.00( 50.0%) 
 MO    11 (    9) HAS LZ(WEIGHT)=-1.00( 50.0%)  1.00( 50.0%) 
 MO    12 (   10) HAS LZ(WEIGHT)=-1.00( 50.0%)  1.00( 50.0%) 
 MO    13 (   10) HAS LZ(WEIGHT)=-1.00( 50.0%)  1.00( 50.0%) 
 MO    14 (   11) HAS LZ(WEIGHT)= 0.00(100.0%) 
 MO    15 (   12) HAS LZ(WEIGHT)= 0.00(100.0%) 
 MO    16 (   13) HAS LZ(WEIGHT)=-1.00( 50.0%)  1.00( 50.0%) 
 MO    17 (   13) HAS LZ(WEIGHT)=-1.00( 50.0%)  1.00( 50.0%) 
 MO    18 (   14) HAS LZ(WEIGHT)= 0.00(100.0%) 
 MO    19 (   15) HAS LZ(WEIGHT)= 0.00(100.0%) 
 MO    20 (   16) HAS LZ(WEIGHT)=-1.00( 50.0%)  1.00( 50.0%) 
 MO    21 (   16) HAS LZ(WEIGHT)=-1.00( 50.0%)  1.00( 50.0%) 
 MO    22 (   17) HAS LZ(WEIGHT)=-2.00( 50.0%)  2.00( 50.0%) 
 MO    23 (   17) HAS LZ(WEIGHT)=-2.00( 50.0%)  2.00( 50.0%) 
 MO    24 (   18) HAS LZ(WEIGHT)=-1.00( 50.0%)  1.00( 50.0%) 
 MO    25 (   18) HAS LZ(WEIGHT)=-1.00( 50.0%)  1.00( 50.0%) 
 MO    26 (   19) HAS LZ(WEIGHT)= 0.00(100.0%) 
 MO    27 (   20) HAS LZ(WEIGHT)= 0.00(100.0%) 
 MO    28 (   21) HAS LZ(WEIGHT)=-2.00( 50.0%)  2.00( 50.0%) 
 MO    29 (   21) HAS LZ(WEIGHT)=-2.00( 50.0%)  2.00( 50.0%) 
 MO    30 (   22) HAS LZ(WEIGHT)=-1.00( 50.0%)  1.00( 50.0%) 
 MO    31 (   22) HAS LZ(WEIGHT)=-1.00( 50.0%)  1.00( 50.0%) 
 MO    32 (   23) HAS LZ(WEIGHT)= 0.00(100.0%) 
 MO    33 (   24) HAS LZ(WEIGHT)= 0.00(100.0%) 
 MO    34 (   25) HAS LZ(WEIGHT)= 0.00(100.0%) 
 ...... END OF UHF CALCULATION ......
 STEP CPU TIME =     0.00 TOTAL CPU TIME =          0.1 (      0.0 MIN)
 TOTAL WALL CLOCK TIME=          0.1 SECONDS, CPU UTILIZATION IS    98.92%
 ..... END OF 1-ELECTRON GRADIENT ......
 STEP CPU TIME =     0.00 TOTAL CPU TIME =          0.1 (      0.0 MIN)
 TOTAL WALL CLOCK TIME=          0.1 SECONDS, CPU UTILIZATION IS    98.93%
 ...... END OF 2-ELECTRON GRADIENT ......
 STEP CPU TIME =     0.02 TOTAL CPU TIME =          0.1 (      0.0 MIN)
 TOTAL WALL CLOCK TIME=          0.1 SECONDS, CPU UTILIZATION IS    99.24%

          NSERCH=  1     ENERGY=    -435.3043142

                                 -----------------------
                                 GRADIENT (HARTREE/BOHR)
                                 -----------------------
        ATOM     ZNUC       DE/DX         DE/DY         DE/DZ
 --------------------------------------------------------------
    1  C            6.0     0.0000000     0.0000000     0.0014039
    2  S           16.0     0.0000000     0.0000000    -0.0014039

          MAXIMUM GRADIENT = 0.0014039    RMS GRADIENT = 0.0008105

 NSERCH:   1  E=     -435.3043142134  GRAD. MAX=  0.0014039  R.M.S.=  0.0008105

          HESSIAN UPDATED USING THE BFGS FORMULA
             ACTUAL ENERGY CHANGE WAS  -0.0007911984
          PREDICTED ENERGY CHANGE WAS  -0.0008070614 RATIO=  0.980
          MIN SEARCH, CORRECT HESSIAN, TRYING PURE NR STEP
               NR STEP HAS LENGTH         =   0.001579
          RADIUS OF STEP TAKEN=   0.00158  CURRENT TRUST RADIUS=   0.07325

 BEGINNING GEOMETRY SEARCH POINT NSERCH=   2 ...

 COORDINATES OF ALL ATOMS ARE (ANGS)
   ATOM   CHARGE       X              Y              Z
 ------------------------------------------------------------
 C           6.0   0.0000000000   0.0000000000  -1.1101022870
 S          16.0   0.0000000000   0.0000000000   0.4096782870

          INTERNUCLEAR DISTANCES (ANGS.)
          ------------------------------

                1 C          2 S     

   1 C       0.0000000    1.5197806 *
   2 S       1.5197806 *  0.0000000  

  * ... LESS THAN  3.000

 ...... END OF ONE-ELECTRON INTEGRALS ......
 STEP CPU TIME =     0.00 TOTAL CPU TIME =          0.1 (      0.0 MIN)
 TOTAL WALL CLOCK TIME=          0.1 SECONDS, CPU UTILIZATION IS    99.24%
 TOTAL NUMBER OF NONZERO TWO-ELECTRON INTEGRALS =               46349
          4 INTEGRAL RECORDS WERE STORED ON DISK FILE  8.
  ...... END OF TWO-ELECTRON INTEGRALS .....
 STEP CPU TIME =     0.00 TOTAL CPU TIME =          0.1 (      0.0 MIN)
 TOTAL WALL CLOCK TIME=          0.1 SECONDS, CPU UTILIZATION IS    99.23%

          ---------------------------
                  UHF SCF CALCULATION
          ---------------------------
     DENSITY MATRIX CONV=  1.00E-05

 ITER EX      TOTAL ENERGY        E CHANGE  DENSITY CHANGE    ORB. GRAD 
          ---------------START SECOND ORDER SCF---------------
   1  0     -435.3043151142  -435.3043151142   0.000383034   0.000168515
   2  1     -435.3043155810    -0.0000004668   0.000269778   0.000106045
   3  2     -435.3043156580    -0.0000000770   0.000141858   0.000025990
   4  3     -435.3043156674    -0.0000000093   0.000026686   0.000005554
   5  4     -435.3043156677    -0.0000000004   0.000007183   0.000001624
   6  5     -435.3043156678    -0.0000000000   0.000002530   0.000000679

          -----------------
          DENSITY CONVERGED
          -----------------
     TIME TO FORM FOCK OPERATORS=       0.0 SECONDS (       0.0 SEC/ITER)
     TIME TO SOLVE SCF EQUATIONS=       0.0 SECONDS (       0.0 SEC/ITER)

 FINAL UHF ENERGY IS     -435.3043156678 AFTER   6 ITERATIONS

          --------------------
          SPIN SZ   =    0.000
          S-SQUARED =    0.000
          --------------------

 LZ VALUE ANALYSIS FOR THE MOS
 ----------------------------------------
 MO     1 (    1) HAS LZ(WEIGHT)= 0.00(100.0%) 
 MO     2 (    2) HAS LZ(WEIGHT)= 0.00(100.0%) 
 MO     3 (    3) HAS LZ(WEIGHT)= 0.00(100.0%) 
 MO     4 (    4) HAS LZ(WEIGHT)= 0.00(100.0%) 
 MO     5 (    5) HAS LZ(WEIGHT)=-1.00( 50.0%)  1.00( 50.0%) 
 MO     6 (    5) HAS LZ(WEIGHT)=-1.00( 50.0%)  1.00( 50.0%) 
 MO     7 (    6) HAS LZ(WEIGHT)= 0.00(100.0%) 
 MO     8 (    7) HAS LZ(WEIGHT)= 0.00(100.0%) 
 MO     9 (    8) HAS LZ(WEIGHT)= 0.00(100.0%) 
 MO    10 (    9) HAS LZ(WEIGHT)=-1.00( 50.0%)  1.00( 50.0%) 
 MO    11 (    9) HAS LZ(WEIGHT)=-1.00( 50.0%)  1.00( 50.0%) 
 MO    12 (   10) HAS LZ(WEIGHT)=-1.00( 50.0%)  1.00( 50.0%) 
 MO    13 (   10) HAS LZ(WEIGHT)=-1.00( 50.0%)  1.00( 50.0%) 
 MO    14 (   11) HAS LZ(WEIGHT)= 0.00(100.0%) 
[...]
                  -91.9859   -11.3508    -9.0034    -6.6852    -6.6831
                     A          A          A          A          A   
    1  C  1  S    0.000044   0.996194   0.000592   0.000872   0.000000
    2  C  1  S    0.000150   0.024140   0.000083   0.000196   0.000000
    3  C  1  X    0.000000   0.000000   0.000000   0.000000   0.000014
    4  C  1  Y    0.000000   0.000000   0.000000   0.000000  -0.000328
    5  C  1  Z   -0.000033   0.003197   0.000024  -0.000197   0.000000
    6  C  1  S   -0.000184  -0.009934  -0.000348   0.002505   0.000000
    7  C  1  X    0.000000   0.000000   0.000000   0.000000  -0.000020
    8  C  1  Y    0.000000   0.000000   0.000000   0.000000   0.000478
    9  C  1  Z    0.000152  -0.003306   0.000767   0.002912   0.000000
   10  C  1 XX    0.000064  -0.001738   0.000061   0.000031   0.000000
   11  C  1 YY    0.000064  -0.001738   0.000061   0.000031   0.000000
   12  C  1 ZZ   -0.000124  -0.000048   0.000132  -0.000606   0.000000
   13  C  1 XY    0.000000   0.000000   0.000000   0.000000   0.000000
   14  C  1 XZ    0.000000   0.000000   0.000000   0.000000   0.000012
   15  C  1 YZ    0.000000   0.000000   0.000000   0.000000  -0.000294
   16  S  2  S    0.996255  -0.000030   0.281781  -0.000269   0.000000
   17  S  2  S    0.014278   0.000073  -1.030134   0.001113   0.000000
   18  S  2  X    0.000000   0.000000   0.000000   0.000000  -0.041703
   19  S  2  Y    0.000000   0.000000   0.000000   0.000000   0.992585
   20  S  2  Z   -0.000036  -0.000098   0.000136   0.992972   0.000000
   21  S  2  S   -0.019960   0.000649  -0.024455  -0.002150   0.000000
   22  S  2  X    0.000000   0.000000   0.000000   0.000000  -0.000913
   23  S  2  Y    0.000000   0.000000   0.000000   0.000000   0.021731
   24  S  2  Z    0.000029   0.000652   0.001244   0.023523   0.000000
   25  S  2  S    0.002372   0.004610   0.005544  -0.002548   0.000000
   26  S  2  X    0.000000   0.000000   0.000000   0.000000   0.000229
   27  S  2  Y    0.000000   0.000000   0.000000   0.000000  -0.005443
   28  S  2  Z   -0.000038  -0.002912  -0.000292  -0.003927   0.000000
   29  S  2 XX    0.006956  -0.000097   0.001799   0.000584   0.000000
   30  S  2 YY    0.006956  -0.000097   0.001799   0.000584   0.000000
   31  S  2 ZZ    0.006984  -0.001301   0.000941  -0.000910   0.000000
   32  S  2 XY    0.000000   0.000000   0.000000   0.000000   0.000000
   33  S  2 XZ    0.000000   0.000000   0.000000   0.000000   0.000001
   34  S  2 YZ    0.000000   0.000000   0.000000   0.000000  -0.000020

                      6          7          8          9         10
                   -6.6831    -1.1100    -0.6879    -0.4673    -0.4634
                     A          A          A          A          A   
    1  C  1  S    0.000000  -0.133463   0.146931   0.100166   0.000000
    2  C  1  S    0.000000   0.270392  -0.316653  -0.202227   0.000000
    3  C  1  X   -0.000328   0.000000   0.000000   0.000000  -0.143433
    4  C  1  Y   -0.000014   0.000000   0.000000   0.000000  -0.231005
    5  C  1  Z    0.000000   0.185725  -0.004283   0.478067   0.000000
    6  C  1  S    0.000000   0.183390  -0.374379  -0.408236   0.000000
    7  C  1  X    0.000478   0.000000   0.000000   0.000000  -0.092566
    8  C  1  Y    0.000020   0.000000   0.000000   0.000000  -0.149081
    9  C  1  Z    0.000000   0.028600   0.016676   0.267712   0.000000
   10  C  1 XX    0.000000  -0.012566   0.007247  -0.006521   0.000000
   11  C  1 YY    0.000000  -0.012566   0.007247  -0.006521   0.000000
   12  C  1 ZZ    0.000000   0.026231  -0.000873   0.041439   0.000000
   13  C  1 XY    0.000000   0.000000   0.000000   0.000000   0.000000
   14  C  1 XZ   -0.000294   0.000000   0.000000   0.000000  -0.021140
   15  C  1 YZ   -0.000012   0.000000   0.000000   0.000000  -0.034046
   16  S  2  S    0.000000   0.059774   0.047294  -0.000250   0.000000
   17  S  2  S    0.000000  -0.275748  -0.219184   0.009074   0.000000
   18  S  2  X    0.992585   0.000000   0.000000   0.000000   0.119259
   19  S  2  Y    0.041703   0.000000   0.000000   0.000000   0.192072
   20  S  2  Z    0.000000   0.083159  -0.152999   0.158704   0.000000
   21  S  2  S    0.000000   0.543489   0.475909   0.021775   0.000000
   22  S  2  X    0.021731   0.000000   0.000000   0.000000  -0.313760
   23  S  2  Y    0.000913   0.000000   0.000000   0.000000  -0.505324
   24  S  2  Z    0.000000  -0.176063   0.385086  -0.411853   0.000000
   25  S  2  S    0.000000   0.146784   0.326640  -0.195891   0.000000
   26  S  2  X   -0.005443   0.000000   0.000000   0.000000  -0.159557
   27  S  2  Y   -0.000229   0.000000   0.000000   0.000000  -0.256974
   28  S  2  Z    0.000000   0.007369   0.080473  -0.084856   0.000000
   29  S  2 XX    0.000000  -0.018396   0.020397  -0.018378   0.000000
   30  S  2 YY    0.000000  -0.018396   0.020397  -0.018378   0.000000
   31  S  2 ZZ    0.000000   0.048674  -0.040235   0.030364   0.000000
   32  S  2 XY    0.000000   0.000000   0.000000   0.000000   0.000000
   33  S  2 XZ   -0.000020   0.000000   0.000000   0.000000   0.029809
   34  S  2 YZ   -0.000001   0.000000   0.000000   0.000000   0.048009

                     11         12         13         14         15
                   -0.4634     0.0754     0.0754     0.2280     0.4219
                     A          A          A          A          A   
    1  C  1  S    0.000000   0.000000   0.000000  -0.102433   0.002559
    2  C  1  S    0.000000   0.000000   0.000000   0.129088  -0.085328
    3  C  1  X   -0.231005  -0.408501  -0.178776   0.000000   0.000000
    4  C  1  Y    0.143433  -0.178776   0.408501   0.000000   0.000000
    5  C  1  Z    0.000000   0.000000   0.000000   0.209883   0.089817
    6  C  1  S    0.000000   0.000000   0.000000   2.018734  -0.239001
    7  C  1  X   -0.149081  -0.617853  -0.270396   0.000000   0.000000
    8  C  1  Y    0.092566  -0.270396   0.617853   0.000000   0.000000
    9  C  1  Z    0.000000   0.000000   0.000000   0.915140  -0.004846
   10  C  1 XX    0.000000   0.000000   0.000000  -0.024100   0.006917
   11  C  1 YY    0.000000   0.000000   0.000000  -0.024100   0.006917
   12  C  1 ZZ    0.000000   0.000000   0.000000   0.006700  -0.034515
   13  C  1 XY    0.000000   0.000000   0.000000   0.000000   0.000000
   14  C  1 XZ   -0.034046  -0.016449  -0.007199   0.000000   0.000000
   15  C  1 YZ    0.021140  -0.007199   0.016449   0.000000   0.000000
   16  S  2  S    0.000000   0.000000   0.000000  -0.007513  -0.067538
   17  S  2  S    0.000000   0.000000   0.000000   0.080453   0.094605
   18  S  2  X    0.192072  -0.116798  -0.051116   0.000000   0.000000
   19  S  2  Y   -0.119259  -0.051116   0.116798   0.000000   0.000000
   20  S  2  Z    0.000000   0.000000   0.000000  -0.038956   0.073743
   21  S  2  S    0.000000   0.000000   0.000000   0.058930  -1.471423
   22  S  2  X   -0.505324   0.315575   0.138108   0.000000   0.000000
   23  S  2  Y    0.313760   0.138108  -0.315575   0.000000   0.000000
   24  S  2  Z    0.000000   0.000000   0.000000   0.085908  -0.295045
   25  S  2  S    0.000000   0.000000   0.000000  -1.848358   1.843688
   26  S  2  X   -0.256974   0.471558   0.206372   0.000000   0.000000
   27  S  2  Y    0.159557   0.206372  -0.471558   0.000000   0.000000
   28  S  2  Z    0.000000   0.000000   0.000000   1.872468   0.170129
   29  S  2 XX    0.000000   0.000000   0.000000  -0.071894  -0.063639
   30  S  2 YY    0.000000   0.000000   0.000000  -0.071894  -0.063639
   31  S  2 ZZ    0.000000   0.000000   0.000000   0.167908  -0.097207
   32  S  2 XY    0.000000   0.000000   0.000000   0.000000   0.000000
   33  S  2 XZ    0.048009   0.095136   0.041635   0.000000   0.000000
   34  S  2 YZ   -0.029809   0.041635  -0.095136   0.000000   0.000000

                     16         17         18         19         20
                    0.5024     0.5024     0.6224     0.7201     0.8158
                     A          A          A          A          A   
    1  C  1  S    0.000000   0.000000  -0.076091  -0.032567   0.000000
    2  C  1  S    0.000000   0.000000   0.117163   0.174990   0.000000
    3  C  1  X    0.087256  -0.001459   0.000000   0.000000   0.325703
    4  C  1  Y    0.001459   0.087256   0.000000   0.000000   1.040721
    5  C  1  Z    0.000000   0.000000  -0.051453  -0.874685   0.000000
    6  C  1  S    0.000000   0.000000   0.476542   0.685186   0.000000
    7  C  1  X    0.027613  -0.000462   0.000000   0.000000  -0.379608
    8  C  1  Y    0.000462   0.027613   0.000000   0.000000  -1.212965
    9  C  1  Z    0.000000   0.000000   1.227412   1.305437   0.000000
   10  C  1 XX    0.000000   0.000000   0.044786   0.030968   0.000000
   11  C  1 YY    0.000000   0.000000   0.044786   0.030968   0.000000
   12  C  1 ZZ    0.000000   0.000000  -0.075463   0.078918   0.000000
   13  C  1 XY    0.000000   0.000000   0.000000   0.000000   0.000000
   14  C  1 XZ    0.053902  -0.000901   0.000000   0.000000   0.014736
   15  C  1 YZ    0.000901   0.053902   0.000000   0.000000   0.047085
   16  S  2  S    0.000000   0.000000  -0.021924   0.010831   0.000000
   17  S  2  S    0.000000   0.000000   0.024092  -0.057290   0.000000
   18  S  2  X   -0.284848   0.004763   0.000000   0.000000   0.017007
   19  S  2  Y   -0.004763  -0.284848   0.000000   0.000000   0.054341
   20  S  2  Z    0.000000   0.000000  -0.276829   0.126931   0.000000
   21  S  2  S    0.000000   0.000000  -0.493421   0.134213   0.000000
   22  S  2  X    1.163479  -0.019454   0.000000   0.000000  -0.062461
   23  S  2  Y    0.019454   1.163479   0.000000   0.000000  -0.199581
   24  S  2  Z    0.000000   0.000000   1.206005  -0.414464   0.000000
   25  S  2  S    0.000000   0.000000  -0.461574  -1.044778   0.000000
   26  S  2  X   -1.257966   0.021034   0.000000   0.000000   0.166696
   27  S  2  Y   -0.021034  -1.257966   0.000000   0.000000   0.532645
   28  S  2  Z    0.000000   0.000000  -0.539178   0.901329   0.000000
   29  S  2 XX    0.000000   0.000000  -0.065220   0.167370   0.000000
   30  S  2 YY    0.000000   0.000000  -0.065220   0.167370   0.000000
   31  S  2 ZZ    0.000000   0.000000   0.038011  -0.391107   0.000000
   32  S  2 XY    0.000000   0.000000   0.000000   0.000000   0.000000
   33  S  2 XZ   -0.079677   0.001332   0.000000   0.000000  -0.027128
   34  S  2 YZ   -0.001332  -0.079677   0.000000   0.000000  -0.086682

                     21
                    0.8158
                     A   
    1  C  1  S    0.000000
    2  C  1  S    0.000000
    3  C  1  X    1.040721
    4  C  1  Y   -0.325703
    5  C  1  Z    0.000000
    6  C  1  S    0.000000
    7  C  1  X   -1.212965
    8  C  1  Y    0.379608
    9  C  1  Z    0.000000
   10  C  1 XX    0.000000
   11  C  1 YY    0.000000
   12  C  1 ZZ    0.000000
   13  C  1 XY    0.000000
   14  C  1 XZ    0.047085
   15  C  1 YZ   -0.014736
   16  S  2  S    0.000000
   17  S  2  S    0.000000
   18  S  2  X    0.054341
   19  S  2  Y   -0.017007
   20  S  2  Z    0.000000
   21  S  2  S    0.000000
   22  S  2  X   -0.199581
   23  S  2  Y    0.062461
   24  S  2  Z    0.000000
   25  S  2  S    0.000000
   26  S  2  X    0.532645
   27  S  2  Y   -0.166696
   28  S  2  Z    0.000000
   29  S  2 XX    0.000000
   30  S  2 YY    0.000000
   31  S  2 ZZ    0.000000
   32  S  2 XY    0.000000
   33  S  2 XZ   -0.086682
   34  S  2 YZ    0.027128

     ----------------------------------------------------------------
     PROPERTY VALUES FOR THE UHF   SELF-CONSISTENT FIELD WAVEFUNCTION
     ----------------------------------------------------------------

          -----------------
          ENERGY COMPONENTS
          -----------------

         WAVEFUNCTION NORMALIZATION =       1.0000000000

                ONE ELECTRON ENERGY =    -666.2985577747
                TWO ELECTRON ENERGY =     197.5659747093
           NUCLEAR REPULSION ENERGY =      33.4282673902
                                      ------------------
                       TOTAL ENERGY =    -435.3043156752

 ELECTRON-ELECTRON POTENTIAL ENERGY =     197.5659747093
  NUCLEUS-ELECTRON POTENTIAL ENERGY =   -1101.4767055002
   NUCLEUS-NUCLEUS POTENTIAL ENERGY =      33.4282673902
                                      ------------------
             TOTAL POTENTIAL ENERGY =    -870.4824634007
               TOTAL KINETIC ENERGY =     435.1781477255
                 VIRIAL RATIO (V/T) =       2.0002899225

  ...... PI ENERGY ANALYSIS ......

 ENERGY ANALYSIS:
            FOCK ENERGY=   -271.1666190356
          BARE H ENERGY=   -666.2985577747
     ELECTRONIC ENERGY =   -468.7325884052
         KINETIC ENERGY=    435.1781477255
          N-N REPULSION=     33.4282673902
           TOTAL ENERGY=   -435.3043210150
        SIGMA PART(1+2)=   -370.6808228329
               (K,V1,2)=    358.7166960889   -857.4975112284    128.0999923066
           PI PART(1+2)=    -98.0517655723
               (K,V1,2)=     76.4614516366   -243.9791942718     69.4659770629
  SIGMA SKELETON, ERROR=   -337.2525554427      0.0000000000
             MIXED PART= 0.00000E+00 0.00000E+00 0.00000E+00 0.00000E+00
 ...... END OF PI ENERGY ANALYSIS ......

          ---------------------------------------
          MULLIKEN AND LOWDIN POPULATION ANALYSES
          ---------------------------------------

     ATOMIC MULLIKEN POPULATION IN EACH MOLECULAR ORBITAL
        ALPHA ORBITALS

                      1          2          3          4          5

                  1.000000   1.000000   1.000000   1.000000   1.000000

    1             0.000002   0.999472  -0.000130  -0.000205   0.000009
    2             0.999998   0.000528   1.000130   1.000205   0.999991

                      6          7          8          9         10

                  1.000000   1.000000   1.000000   1.000000   1.000000

    1             0.000009   0.389373   0.343370   0.757845   0.263096
    2             0.999991   0.610627   0.656630   0.242155   0.736904

                     11

                  1.000000

    1             0.263096
    2             0.736904

     ATOMIC MULLIKEN POPULATION IN EACH MOLECULAR ORBITAL
         BETA ORBITALS

                      1          2          3          4          5

                  1.000000   1.000000   1.000000   1.000000   1.000000

    1             0.000002   0.999472  -0.000130  -0.000205   0.000009
    2             0.999998   0.000528   1.000130   1.000205   0.999991

                      6          7          8          9         10

                  1.000000   1.000000   1.000000   1.000000   1.000000

    1             0.000009   0.389373   0.343370   0.757845   0.263096
    2             0.999991   0.610627   0.656630   0.242155   0.736904

                     11

                  1.000000

    1             0.263096
    2             0.736904

     ATOMIC SPIN POPULATION (ALPHA MINUS BETA)
       ATOM         MULL.POP.                    LOW.POP.
    1 C             0.000000                     0.000000
    2 S             0.000000                     0.000000


          ********* ALL ELECTRONS ********

               ----- POPULATIONS IN EACH AO -----
                             MULLIKEN      LOWDIN
              1  C  1  S      1.99801     1.98714
              2  C  1  S      0.83899     0.49461
              3  C  1  X      0.27514     0.24746
              4  C  1  Y      0.27514     0.24746
              5  C  1  Z      0.86869     0.83495
              6  C  1  S      0.94484     0.57057
              7  C  1  X      0.23710     0.30337
              8  C  1  Y      0.23710     0.30337
              9  C  1  Z      0.34033     0.51079
             10  C  1 XX     -0.01273     0.18589
             11  C  1 YY     -0.01273     0.18589
             12  C  1 ZZ      0.01405     0.23115
             13  C  1 XY      0.00000     0.00000
             14  C  1 XZ      0.01397     0.02037
             15  C  1 YZ      0.01397     0.02037
             16  S  2  S      1.99891     1.99857
             17  S  2  S      1.99849     1.98265
             18  S  2  X      1.99262     1.96695
             19  S  2  Y      1.99262     1.96695
             20  S  2  Z      1.99294     1.96792
             21  S  2  S      1.31543     0.58187
             22  S  2  X      0.97323     0.88734
             23  S  2  Y      0.97323     0.88734
             24  S  2  Z      0.99018     0.87912
             25  S  2  S      0.55886     0.50354
             26  S  2  X      0.49212     0.56034
             27  S  2  Y      0.49212     0.56034
             28  S  2  Z      0.11778     0.34402
             29  S  2 XX     -0.00029     0.23270
             30  S  2 YY     -0.00029     0.23270
             31  S  2 ZZ      0.04854     0.27592
             32  S  2 XY      0.00000     0.00000
             33  S  2 XZ      0.01582     0.01417
             34  S  2 YZ      0.01582     0.01417

          ----- MULLIKEN ATOMIC OVERLAP POPULATIONS -----
          (OFF-DIAGONAL ELEMENTS NEED TO BE MULTIPLIED BY 2)

             1           2

    1    5.3968116
    2    0.6350599  15.3330686

          TOTAL MULLIKEN AND LOWDIN ATOMIC POPULATIONS
       ATOM         MULL.POP.    CHARGE          LOW.POP.     CHARGE
    1 C             6.031872   -0.031872         6.143391   -0.143391
    2 S            15.968128    0.031872        15.856609    0.143391

          -------------------------------
          BOND ORDER AND VALENCE ANALYSIS     BOND ORDER THRESHOLD=0.050
          -------------------------------

                   BOND                       BOND                       BOND
  ATOM PAIR DIST  ORDER      ATOM PAIR DIST  ORDER      ATOM PAIR DIST  ORDER
    1   2  1.520  2.486

                       TOTAL       BONDED        FREE
      ATOM            VALENCE     VALENCE     VALENCE
    1 C                 2.486       2.486       0.000
    2 S                 2.486       2.486       0.000

          -----------------------------------------
          ATOMIC SPIN DENSITY AT THE NUCLEUS (A.U.)
          -----------------------------------------
                            SPIN DENS    ALPHA DENS     BETA DENS
    1  C            6.0     0.0000000      59.69665      59.69665
    2  S           16.0     0.0000000    1252.36785    1252.36785

          ---------------------
          ELECTROSTATIC MOMENTS
          ---------------------

 POINT   1           X           Y           Z (BOHR)    CHARGE
                 0.000000    0.000000   -0.009616        0.00 (A.U.)
         DX          DY          DZ         /D/  (DEBYE)
     0.000000    0.000000    1.340034    1.340034
 ...... END OF PROPERTY EVALUATION ......
 STEP CPU TIME =     0.00 TOTAL CPU TIME =          0.1 (      0.0 MIN)
 TOTAL WALL CLOCK TIME=          0.1 SECONDS, CPU UTILIZATION IS    99.49%
  $VIB   
          IVIB=   0 IATOM=   0 ICOORD=   0 E=     -435.3043156752
  0.000000000E+00 0.000000000E+00-1.938171496E-07 0.000000000E+00 0.000000000E+00
  1.938305889E-07
  0.000000000E+00 0.000000000E+00 1.340033977E+00
 ......END OF GEOMETRY SEARCH......
 STEP CPU TIME =     0.00 TOTAL CPU TIME =          0.1 (      0.0 MIN)
 TOTAL WALL CLOCK TIME=          0.1 SECONDS, CPU UTILIZATION IS    99.49%
               990205  WORDS OF DYNAMIC MEMORY USED
 EXECUTION OF GAMESS TERMINATED NORMALLY 19:56:09 20-OCT-2025    
----- accounting info -----
Files used on the parent node Macbooks-MacBook-Pro.local were:
-rw-r--r--  1 macbookpro  staff      241 Oct 20 19:56 /Users/macbookpro/local/gamess/scr/sc_q0m1_uhf_631g_star.F05
-rw-r--r--  1 macbookpro  staff   720064 Oct 20 19:56 /Users/macbookpro/local/gamess/scr/sc_q0m1_uhf_631g_star.F08
-rw-r--r--  1 macbookpro  staff  2094080 Oct 20 19:56 /Users/macbookpro/local/gamess/scr/sc_q0m1_uhf_631g_star.F10
-rw-r--r--  1 macbookpro  staff   117311 Oct 20 19:56 /Users/macbookpro/local/gamess/scr/sc_q0m1_uhf_631g_star.dat
Mon Oct 20 19:56:09 +07 2025
0.188u 0.053s 0:00.24 95.8%	0+0k 0+0io 46pf+0w
