1 : si2_q0m3_uhf_631g_star.inp
----- GAMESS execution script 'rungms' -----
This job is running on host Macbooks-MacBook-Pro.local
under operating system Darwin at Mon Oct 20 19:56:14 +07 2025
Available scratch disk space (Kbyte units) at beginning of the job is
Filesystem   1024-blocks      Used Available Capacity iused      ifree %iused  Mounted on
/dev/disk3s5   482797652 122179056 339914156    27% 1896457 3399141560    0%   /System/Volumes/Data
GAMESS temporary binary files will be written to /Users/macbookpro/local/gamess/scr
GAMESS supplementary output files will be written to /Users/macbookpro/local/gamess/scr
Copying input file /Users/macbookpro/sq2_data/si2_q0m3_uhf_631g_star.inp to your run's scratch directory...
          *******************************************************
          *                                                     *
          *          GAMESS VERSION = 30 JUN 2023 (R1)          *
          *                                                     *
          *              doi.org/10.1063/5.0005188              *
          *                                                     *
          **************** 64 BIT LINUX VERSION *****************

  GAMESS HAS BEEN MADE POSSIBLE WITH IMPORTANT CONTRIBUTIONS FROM
  THE FOLLOWING INDIVIDUALS (IN ALPHABETICAL ORDER):

     IVANA ADAMOVIC, CHRISTINE AIKENS, TOMOKO AKAMA,
     MELISA ALKAN, YURI ALEXEEV, YURIKO AOKI, POOJA ARORA,
     TOSHIO ASADA, ANDREY ASADCHEV, KIM K. BALDRIDGE,
     PRADIPTA BANDYOPADHYAY, TAYLOR A. BARNES, MARIA BARYSZ,
     ROB BELL, JONATHAN BENTZ, COLLEEN BERTONI,
     JERRY A. BOATZ, BRETT BODE, KURT BRORSEN, KURT R. BRORSEN,
     LAIMUTIS BYTAUTAS, CALEB CARLIN, LAURA CARRINGTON,
     GALINA CHABAN, BENOIT CHAMPAGNE, WEI CHEN, MAHITO CHIBA,
     DAN CHIPMAN, CHEOL HO CHOI, TANNER CULPITT,
     DIPAYAN DATTA, PAUL DAY, ALBERT DEFUSCO,
     NUWAN DESILVA, J. EMILIANO DEUSTUA,
     TIM DUDLEY, MICHEL DUPUIS, STEVEN T. ELBERT,
     DMITRI FEDOROV, KATHERINE FERRERAS, MICHAEL FILATOV,
     ALEX FINDLATER,GRAHAM FLETCHER, MARK FREITAG,
     CHRISTIAN FRIEDL, DAVID GARMER, 
     IGOR S. GERASIMOV, KURT GLAESEMANN,
     MARK S. GORDON, JEFFREY R. GOUR, FENG LONG GU,
     EMILIE B. GUIDEZ, ANASTASIA GUNINA, SHARON HAMMES-SCHIFFER,
     MASATAKE HARUTA, KIMIHIKO HIRAO, YASUHIRO IKABATA,
     TZVETELIN IORDANOV, STEPHAN IRLE, KAZUYA ISHIMURA,
     JOE IVANIC, FRANK JENSEN, JAN H. JENSEN, VISVALDAS KAIRYS,
     MUNEAKI KAMIYA, MICHIO KATOUDA, NAOAKI KAWAKAMI, DAN KEMP,
     BERNARD KIRTMAN, KAZUO KITAURA, MARIUSZ KLOBUKOWSKI,
     MASATO KOBAYASHI, KONSTANTIN KOMAROV, PRAKASHAN KORAMBATH,
     JACEK KORCHOWIEC, SHIRO KOSEKI, KAROL KOWALSKI,
     JIMMY KROMANN, STANISLAW A. KUCHARSKI, HENRY KURTZ,
     SAROM SOK LEANG, SEUNGHOON LEE, HUI LI, SHUHUA LI, WEI LI,
     JESSE J. LUTZ, ALEKSANDR O. LYKHIN,
     ILIAS MAGOULAS, MARCIN MAKOWSKI,
     JOANI MATO, NIKITA MATSUNAGA, BENEDETTA MENNUCCI,
     GRANT MERRILL, NORIYUKI MINEZAWA, VLADIMIR MIRONOV,
     EISAKU MIYOSHI, JOHN A. MONTGOMERY JR., HIROTOSHI MORI,
     JONATHAN MULLIN, MONIKA MUSIAL, SHIGERU NAGASE,
     TAKESHI NAGATA, HIROMI NAKAI, TAKAHITO NAKAJIMA,
     YUYA NAKAJIMA, HARUYUKI NAKANO, HIROYA NAKATA, SEAN NEDD,
     HEATHER NETZLOFF, KIET A. NGUYEN, YOSHIO NISHIMOTO,
     BOSILJKA NJEGIC, RYAN OLSON, MIKE PAK, ROBERTO PEVERATI,
     BUU PHAM, PIOTR PIECUCH, ANNA POMOGAEVA, DAVID POOLE,
     SPENCER PRUITT, OLIVIER QUINET, LUKE ROSKOP,
     KLAUS RUEDENBERG, ANDREW SAND, TOSAPORN SATTASATHUCHANA,
     NOZOMI SAWADA, MICHAEL W. SCHMIDT, PATRICK E. SCHNEIDER,
     JUNJI SEINO, PRACHI SHARMA, JUN SHEN, JIM SHOEMAKER,
     YINAN SHU, DEJUN SI, JONATHAN SKONE, LYUDMILA SLIPCHENKO,
     TONY SMITH, JIE SONG, MARK SPACKMAN, CASPER STEINMANN,
     WALT STEVENS, PEIFENG SU, SHUJUN SU, CHET SWALINA,
     CHINAMI TAKASHIMA, TETSUYA TAKETSUGU, ZHEN TAO,
     NANDUN THELLAMUREGE, SEIKEN TOKURA, JACOPO TOMASI,
     TSUGUKI TOUMA, TAKAO TSUNEDA, HIROAKI UMEDA,
     JORGE LUIS GALVEZ VALLEJO, YALI WANG, SIMON WEBB,
     AARON WEST, THERESA L. WINDUS, MARTA WLOCH,
     PENG XU, KIYOSHI YAGI, SUSUMU YANAGISAWA, YANG YANG,
     SOOHAENG YOO, TAKESHI YOSHIKAWA, FEDERICO ZAHARIEV,
     TOBY ZENG

  WHO ARE SUPPORTED BY THEIR INSTITUTION/UNIVERSITY/COMPANY/GROUP
  (IN ALPHABETICAL ORDER):

     EP ANALYTICS,
     FACULTES UNIVERSITAIRES NOTRE-DAME DE LA PAIX,
     INSTITUTE FOR MOLECULAR SCIENCE, IOWA STATE UNIVERSITY,
     JACKSON STATE UNIVERSITY, JOHANNES KEPLER UNIVERSITY LINZ,
     KYUNGPOOK NATIONAL UNIVERSITY
     KYUSHU UNIVERSITY, MICHIGAN STATE UNIVERSITY,
     MIE UNIVERSITY, THE MOLECULAR SCIENCES SOFTWARE INSTITUTE,
     MOSCOW STATE UNIVERSITY,
     N. COPERNICUS UNIVERSITY, NAGOYA UNIVERSITY,
     NANJING UNIVERSITY, NAT. INST. OF ADVANCED INDUSTRIAL
     SCIENCE AND TECHNOLOGY, NATIONAL INST. OF STANDARDS AND
     TECHNOLOGY, NESMEYANOV INSTITUTE OF ORGANOELEMENT COMPOUNDS
     OF RUSSIAN ACADEMY OF SCIENCES, OSAKA PREFECTURE UNIVERSITY,
     PENNSYLVANIA STATE UNIVERSITY, TOKYO INSTITUTE OF TECHNOLOGY,
     UNIVERSITY OF AARHUS, UNIVERSITY OF ALBERTA,
     UNIVERSITY OF CALIFORNIA AT SANTA BARBARA,
     UNIVERSITY OF COPENHAGEN, UNIVERSITY OF IOWA,
     UNIVERSITY OF MEMPHIS, UNIVERSITY OF MINNESOTA,
     UNIVERSITY OF NEBRASKA, UNIVERSITY OF NEW ENGLAND,
     UNIVERSITY OF NOTRE DAME, UNIVERSITY OF PISA,
     UNIVERSITY OF SILESIA, UNIVERSITY OF TOKYO,
     UNIVERSITY OF ZURICH, WASEDA UNIVERSITY,
     YALE UNIVERSITY

  GAMESS SOFTWARE MANAGEMENT TEAM FOR THIS RELEASE:
     MARK S. GORDON (TEAM LEAD),
     BRETT BODE (SENIOR ADVISOR),
     GIUSEPPE BARCA,
     COLLEEN BERTONI,
     KRISTOPHER KEIPERT (ADVISOR),
     SAROM S. LEANG (DEVELOPMENT LEAD),
     BUU PHAM,
     JACKSON HAYES (WEBSITE ADMINISTRATOR),
     PENG XU

 EXECUTION OF GAMESS BEGUN 19:56:14 20-OCT-2025    

            ECHO OF THE FIRST FEW INPUT CARDS -
 INPUT CARD> $CONTRL SCFTYP=UHF ICHARG=0 MULT=3                                             
 INPUT CARD> RUNTYP=OPTIMIZE                                                                
 INPUT CARD> $END                                                                           
 INPUT CARD> $BASIS GBASIS=N31 NGAUSS=6 NDFUNC=1 $END                                       
 INPUT CARD> $DATA                                                                          
 INPUT CARD> ... this is comment ...                                                        
 INPUT CARD> C1                                                                             
 INPUT CARD> SI   14   0.00000000   0.00000000   1.08869357                                 
 INPUT CARD> SI   14   0.00000000   0.00000000  -1.08869357                                 
 INPUT CARD> $END                                                                           
 INPUT CARD>                                                                                
      1000000 WORDS OF MEMORY AVAILABLE

     BASIS OPTIONS
     -------------
     GBASIS=N31          IGAUSS=       6      POLAR=POPN31  
     NDFUNC=       1     NFFUNC=       0     DIFFSP=       F
     NPFUNC=       0      DIFFS=       F     BASNAM=        


     RUN TITLE
     ---------
  ... this is comment ...                                                        

 THE POINT GROUP OF THE MOLECULE IS C1      
 THE ORDER OF THE PRINCIPAL AXIS IS     0

 ATOM      ATOMIC                      COORDINATES (BOHR)
           CHARGE         X                   Y                   Z
 SI         14.0     0.0000000000        0.0000000000        2.0573325319
 SI         14.0     0.0000000000        0.0000000000       -2.0573325319

          INTERNUCLEAR DISTANCES (ANGS.)
          ------------------------------

                1 SI         2 SI    

   1 SI      0.0000000    2.1773871 *
   2 SI      2.1773871 *  0.0000000  

  * ... LESS THAN  3.000


     ATOMIC BASIS SET
     ----------------
 THE CONTRACTED PRIMITIVE FUNCTIONS HAVE BEEN UNNORMALIZED
 THE CONTRACTED BASIS FUNCTIONS ARE NOW NORMALIZED TO UNITY

  SHELL TYPE  PRIMITIVE        EXPONENT          CONTRACTION COEFFICIENT(S)

 SI        

      1   S       1         16192.1000000    0.001949239405
      1   S       2          2436.0900000    0.014855895466
      1   S       3           556.0010000    0.072568877851
      1   S       4           156.8130000    0.245654925022
      1   S       5            50.1692000    0.486059851646
      1   S       6            17.0300000    0.325719900585

      2   L       7           293.3500000   -0.002829912441    0.004433341604
      2   L       8            70.1173000   -0.036073731114    0.032440211739
      2   L       9            22.4301000   -0.116808100749    0.133719048387
      2   L      10             8.1942500    0.093576880711    0.326780118247
      2   L      11             3.1476800    0.601705518979    0.451139163247
      2   L      12             1.2151500    0.422072364043    0.264105095568

      3   L      13             1.6537000   -0.240599186106   -0.015177406538
      3   L      14             0.5407600    0.073795050368    0.275139118516
      3   L      15             0.2044060    1.040936478740    0.783008337279

      4   L      16             0.0723837    1.000000000000    1.000000000000

      5   D      17             0.3950000    1.000000000000

 SI        

      6   S      18         16192.1000000    0.001949239405
      6   S      19          2436.0900000    0.014855895466
      6   S      20           556.0010000    0.072568877851
      6   S      21           156.8130000    0.245654925022
      6   S      22            50.1692000    0.486059851646
      6   S      23            17.0300000    0.325719900585

      7   L      24           293.3500000   -0.002829912441    0.004433341604
      7   L      25            70.1173000   -0.036073731114    0.032440211739
      7   L      26            22.4301000   -0.116808100749    0.133719048387
      7   L      27             8.1942500    0.093576880711    0.326780118247
      7   L      28             3.1476800    0.601705518979    0.451139163247
      7   L      29             1.2151500    0.422072364043    0.264105095568

      8   L      30             1.6537000   -0.240599186106   -0.015177406538
      8   L      31             0.5407600    0.073795050368    0.275139118516
      8   L      32             0.2044060    1.040936478740    0.783008337279

      9   L      33             0.0723837    1.000000000000    1.000000000000

     10   D      34             0.3950000    1.000000000000

 TOTAL NUMBER OF BASIS SET SHELLS             =   10
 NUMBER OF CARTESIAN GAUSSIAN BASIS FUNCTIONS =   38
 NUMBER OF ELECTRONS                          =   28
 CHARGE OF MOLECULE                           =    0
 SPIN MULTIPLICITY                            =    3
 NUMBER OF OCCUPIED ORBITALS (ALPHA)          =   15
 NUMBER OF OCCUPIED ORBITALS (BETA )          =   13
 TOTAL NUMBER OF ATOMS                        =    2
 THE NUCLEAR REPULSION ENERGY IS       47.6344968452

 THIS MOLECULE IS RECOGNIZED AS BEING LINEAR,
 ORBITAL LZ DEGENERACY TOLERANCE ETOLLZ= 1.00E-06

     $CONTRL OPTIONS
     ---------------
 SCFTYP=UHF          RUNTYP=OPTIMIZE     EXETYP=RUN     
 MPLEVL=       0     CITYP =NONE         CCTYP =NONE         VBTYP =NONE    
 DFTTYP=NONE         TDDFT =NONE    
 MULT  =       3     ICHARG=       0     NZVAR =       0     COORD =UNIQUE  
 PP    =NONE         RELWFN=NONE         LOCAL =NONE         NUMGRD=       F
 ISPHER=      -1     NOSYM =       0     MAXIT =      30     UNITS =ANGS    
 PLTORB=       F     MOLPLT=       F     AIMPAC=       F     FRIEND=        
 NPRINT=       7     IREST =       0     GEOM  =INPUT   
 NORMF =       0     NORMP =       0     ITOL  =      20     ICUT  =       9
 INTTYP=BEST         GRDTYP=BEST         QMTTOL= 1.0E-06

     $SYSTEM OPTIONS
     ---------------
  REPLICATED MEMORY=     1000000 WORDS (ON EVERY NODE).
 DISTRIBUTED MEMDDI=           0 MILLION WORDS IN AGGREGATE,
 MEMDDI DISTRIBUTED OVER   1 PROCESSORS IS           0 WORDS/PROCESSOR.
 TOTAL MEMORY REQUESTED ON EACH PROCESSOR=     1000000 WORDS.
 TIMLIM=      525600.00 MINUTES, OR     365.0 DAYS.
 PARALL= F  BALTYP=  DLB     KDIAG=    0  COREFL= F
 MXSEQ2=     300 MXSEQ3=     150  mem10=         0  mem22=         0

          ----------------
          PROPERTIES INPUT
          ----------------

     MOMENTS            FIELD           POTENTIAL          DENSITY
 IEMOM =       1   IEFLD =       0   IEPOT =       0   IEDEN =       0
 WHERE =COMASS     WHERE =NUCLEI     WHERE =NUCLEI     WHERE =NUCLEI  
 OUTPUT=BOTH       OUTPUT=BOTH       OUTPUT=BOTH       OUTPUT=BOTH    
 IEMINT=       0   IEFINT=       0                     IEDINT=       0
                                                       MORB  =       0
          EXTRAPOLATION IN EFFECT
          SOSCF IN EFFECT
          DIIS or SOSCF will be reset if energy rises
 ORBITAL PRINTING OPTION: NPREO=     1    38     2     1

     -------------------------------
     INTEGRAL TRANSFORMATION OPTIONS
     -------------------------------
     NWORD  =            0
     CUTTRF = 1.0E-09     MPTRAN =       0
     DIRTRF =       F     AOINTS =DUP     

          ----------------------
          INTEGRAL INPUT OPTIONS
          ----------------------
 NOPK  =       1 NORDER=       0 SCHWRZ=       F

     ------------------------------------------
     THE POINT GROUP IS C1 , NAXIS= 0, ORDER= 1
     ------------------------------------------

     DIMENSIONS OF THE SYMMETRY SUBSPACES ARE
 A   =   38

 ..... DONE SETTING UP THE RUN .....
 STEP CPU TIME =     0.00 TOTAL CPU TIME =          0.0 (      0.0 MIN)
 TOTAL WALL CLOCK TIME=          0.0 SECONDS, CPU UTILIZATION IS    97.39%


          -----------------------------
          STATIONARY POINT LOCATION RUN
          -----------------------------

 OBTAINING INITIAL HESSIAN, HESS=GUESS   
 CARTESIAN COORDINATE OPTIMIZATION USING BADGER'S RULE FORCE CONSTANT GUESS

          PARAMETERS CONTROLLING GEOMETRY SEARCH ARE
          METHOD =QA                  UPHESS =BFGS    
          NNEG   =         0          NFRZ   =         0
          NSTEP  =        50          IFOLOW =         1
          HESS   =GUESS               RESTAR =         F
          IHREP  =         0          HSSEND =         F
          NPRT   =         0          NPUN   =         0
          OPTTOL = 1.000E-04          RMIN   = 1.500E-03
          RMAX   = 1.000E-01          RLIM   = 7.000E-02
          DXMAX  = 3.000E-01          PURIFY =         F
          MOVIE  =         F          TRUPD  =         T
          TRMAX  = 5.000E-01          TRMIN  = 5.000E-02
          ITBMAT =         5          STPT   =         F
          STSTEP = 1.000E-02          PROJCT=          T

 BEGINNING GEOMETRY SEARCH POINT NSERCH=   0 ...

 COORDINATES OF ALL ATOMS ARE (ANGS)
   ATOM   CHARGE       X              Y              Z
 ------------------------------------------------------------
 SI         14.0   0.0000000000   0.0000000000   1.0886935700
 SI         14.0   0.0000000000   0.0000000000  -1.0886935700

          ********************
          1 ELECTRON INTEGRALS
          ********************
 ...... END OF ONE-ELECTRON INTEGRALS ......
 STEP CPU TIME =     0.00 TOTAL CPU TIME =          0.0 (      0.0 MIN)
 TOTAL WALL CLOCK TIME=          0.0 SECONDS, CPU UTILIZATION IS    97.65%

          -------------
          GUESS OPTIONS
          -------------
          GUESS =HUCKEL            NORB  =       0          NORDER=       0
          MIX   =       F          PRTMO =       F          PUNMO =       F
          TOLZ  = 1.0E-08          TOLE  = 1.0E-05
          SYMDEN=       F          PURIFY=       F

 INITIAL GUESS ORBITALS GENERATED BY HUCKEL   ROUTINE.
 HUCKEL GUESS REQUIRES     13778 WORDS.

 SYMMETRIES FOR INITIAL GUESS ORBITALS FOLLOW.  ALPHA SET(S).
    15 ORBITALS ARE OCCUPIED (   10 CORE ORBITALS).
    11=A       12=A       13=A       14=A       15=A       16=A       17=A   
    18=A       19=A       20=A       21=A       22=A       23=A       24=A   
    25=A   

 SYMMETRIES FOR INITIAL GUESS ORBITALS FOLLOW.   BETA SET(S).
    13 ORBITALS ARE OCCUPIED (   10 CORE ORBITALS).
    11=A       12=A       13=A       14=A       15=A       16=A       17=A   
    18=A       19=A       20=A       21=A       22=A       23=A   
 ...... END OF INITIAL ORBITAL SELECTION ......
 STEP CPU TIME =     0.00 TOTAL CPU TIME =          0.0 (      0.0 MIN)
 TOTAL WALL CLOCK TIME=          0.0 SECONDS, CPU UTILIZATION IS    97.99%

                    ----------------------
                    AO INTEGRAL TECHNOLOGY
                    ----------------------
     S,P,L SHELL ROTATED AXIS INTEGRALS, REPROGRAMMED BY
        KAZUYA ISHIMURA (IMS) AND JOSE SIERRA (SYNSTAR).
     S,P,D,L SHELL ROTATED AXIS INTEGRALS PROGRAMMED BY
        KAZUYA ISHIMURA (INSTITUTE FOR MOLECULAR SCIENCE).
     S,P,D,F,G SHELL TO TOTAL QUARTET ANGULAR MOMENTUM SUM 5,
        ERIC PROGRAM BY GRAHAM FLETCHER (ELORET AND NASA ADVANCED
        SUPERCOMPUTING DIVISION, AMES RESEARCH CENTER).
     S,P,D,F,G,L SHELL GENERAL RYS QUADRATURE PROGRAMMED BY
        MICHEL DUPUIS (PACIFIC NORTHWEST NATIONAL LABORATORY).

          --------------------
          2 ELECTRON INTEGRALS
          --------------------

 THE -PK- OPTION IS OFF, THE INTEGRALS ARE NOT IN SUPERMATRIX FORM.
 STORING   15000 INTEGRALS/RECORD ON DISK, USING 12 BYTES/INTEGRAL.
 TWO ELECTRON INTEGRAL EVALUATION REQUIRES   90451 WORDS OF MEMORY.
 II,JST,KST,LST =  1  1  1  1 NREC =         1 INTLOC =    1
 II,JST,KST,LST =  2  1  1  1 NREC =         1 INTLOC =    2
 II,JST,KST,LST =  3  1  1  1 NREC =         1 INTLOC =   34
 II,JST,KST,LST =  4  1  1  1 NREC =         1 INTLOC =  214
 II,JST,KST,LST =  5  1  1  1 NREC =         1 INTLOC =  776
 II,JST,KST,LST =  6  1  1  1 NREC =         1 INTLOC = 2864
 II,JST,KST,LST =  7  1  1  1 NREC =         1 INTLOC = 3763
 II,JST,KST,LST =  8  1  1  1 NREC =         1 INTLOC = 9731
 II,JST,KST,LST =  9  1  1  1 NREC =         2 INTLOC = 5048
 II,JST,KST,LST = 10  1  1  1 NREC =         3 INTLOC = 5590
 TOTAL NUMBER OF NONZERO TWO-ELECTRON INTEGRALS =               69947
          5 INTEGRAL RECORDS WERE STORED ON DISK FILE  8.
  ...... END OF TWO-ELECTRON INTEGRALS .....
 STEP CPU TIME =     0.01 TOTAL CPU TIME =          0.0 (      0.0 MIN)
 TOTAL WALL CLOCK TIME=          0.0 SECONDS, CPU UTILIZATION IS    99.38%

          ---------------------------
                  UHF SCF CALCULATION
          ---------------------------

     NUCLEAR ENERGY =        47.6344968452
     MAXIT = 30     NPUNCH=  2     MULT=  3
     EXTRAP=T  DAMP=F  SHIFT=F  RSTRCT=F  DIIS=F  SOSCF=T
     DENSITY MATRIX CONV=  1.00E-05
     SOSCF WILL OPTIMIZE     345 ALPHA AND     325 BETA ROTATION ANGLES.
     SOGTOL= 2.500E-01
     MEMORY REQUIRED FOR UHF/ROHF ITERS=     49738 WORDS.

 ITER EX      TOTAL ENERGY        E CHANGE  DENSITY CHANGE    ORB. GRAD 
   1  0     -577.3987643067  -577.3987643067   0.721336076   0.000000000
          ---------------START SECOND ORDER SCF---------------
   2  1     -577.6886018186    -0.2898375119   0.074048076   0.053895679
   3  2     -577.6994996048    -0.0108977862   0.083812141   0.023888134
   4  3     -577.7028289805    -0.0033293756   0.011577113   0.004532405
   5  4     -577.7030485114    -0.0002195309   0.008660881   0.002386494
   6  5     -577.7031157839    -0.0000672725   0.001777632   0.000553832
   7  6     -577.7031181175    -0.0000023336   0.001103721   0.000270825
   8  7     -577.7031188352    -0.0000007177   0.000141949   0.000031330
   9  8     -577.7031188441    -0.0000000089   0.000065688   0.000008943
  10  9     -577.7031188451    -0.0000000010   0.000006726   0.000001755
  11 10     -577.7031188451    -0.0000000000   0.000004860   0.000000572

          -----------------
          DENSITY CONVERGED
          -----------------
     TIME TO FORM FOCK OPERATORS=       0.0 SECONDS (       0.0 SEC/ITER)
     TIME TO SOLVE SCF EQUATIONS=       0.0 SECONDS (       0.0 SEC/ITER)

 FINAL UHF ENERGY IS     -577.7031188451 AFTER  11 ITERATIONS

          --------------------
          SPIN SZ   =    1.000
          S-SQUARED =    2.022
          --------------------

 LZ VALUE ANALYSIS FOR THE MOS
 ----------------------------------------
 MO     1 (    1) HAS LZ(WEIGHT)=-0.00( 50.0%)  0.00( 50.0%) 
 MO     2 (    1) HAS LZ(WEIGHT)=-0.00( 50.0%)  0.00( 50.0%) 
 MO     3 (    2) HAS LZ(WEIGHT)= 0.00(100.0%) 
 MO     4 (    3) HAS LZ(WEIGHT)= 0.00(100.0%) 
 MO     5 (    4) HAS LZ(WEIGHT)= 0.00(100.0%) 
 MO     6 (    5) HAS LZ(WEIGHT)= 0.00(100.0%) 
 MO     7 (    6) HAS LZ(WEIGHT)= 0.00(100.0%) 
 MO     8 (    7) HAS LZ(WEIGHT)= 0.00(100.0%) 
 MO     9 (    8) HAS LZ(WEIGHT)= 0.00(100.0%) 
 MO    10 (    9) HAS LZ(WEIGHT)= 0.00(100.0%) 
 MO    11 (   10) HAS LZ(WEIGHT)= 0.00(100.0%) 
 MO    12 (   11) HAS LZ(WEIGHT)= 0.00(100.0%) 
 MO    13 (   12) HAS LZ(WEIGHT)= 0.00(100.0%) 
 MO    14 (   13) HAS LZ(WEIGHT)= 0.00(100.0%) 
 MO    15 (   14) HAS LZ(WEIGHT)= 0.00(100.0%) 
 MO    16 (   15) HAS LZ(WEIGHT)= 0.00(100.0%) 
 MO    17 (   16) HAS LZ(WEIGHT)= 0.00(100.0%) 
 MO    18 (   17) HAS LZ(WEIGHT)= 0.00(100.0%) 
 MO    19 (   18) HAS LZ(WEIGHT)= 0.00(100.0%) 
 MO    20 (   19) HAS LZ(WEIGHT)= 0.00(100.0%) 
 MO    21 (   20) HAS LZ(WEIGHT)= 0.00(100.0%) 
 MO    22 (   21) HAS LZ(WEIGHT)= 0.00(100.0%) 
 MO    23 (   22) HAS LZ(WEIGHT)= 0.00(100.0%) 
 MO    24 (   23) HAS LZ(WEIGHT)= 0.00(100.0%) 
 MO    25 (   24) HAS LZ(WEIGHT)= 0.00(100.0%) 
 MO    26 (   25) HAS LZ(WEIGHT)= 0.00(100.0%) 
 MO    27 (   26) HAS LZ(WEIGHT)= 0.00(100.0%) 
 MO    28 (   27) HAS LZ(WEIGHT)= 0.00(100.0%) 
 MO    29 (   28) HAS LZ(WEIGHT)= 0.00(100.0%) 
 MO    30 (   29) HAS LZ(WEIGHT)= 0.00(100.0%) 
 MO    31 (   30) HAS LZ(WEIGHT)= 0.00(100.0%) 
 MO    32 (   31) HAS LZ(WEIGHT)= 0.00(100.0%) 
 MO    33 (   32) HAS LZ(WEIGHT)= 0.00(100.0%) 
 MO    34 (   33) HAS LZ(WEIGHT)= 0.00(100.0%) 
 MO    35 (   34) HAS LZ(WEIGHT)= 0.00(100.0%) 
 MO    36 (   35) HAS LZ(WEIGHT)= 0.00(100.0%) 
 MO    37 (   36) HAS LZ(WEIGHT)= 0.00(100.0%) 
 MO    38 (   37) HAS LZ(WEIGHT)= 0.00(100.0%) 

  ----- ALPHA SET ----- 

          ------------
          EIGENVECTORS
          ------------

                      1          2          3          4          5
                  -68.8107   -68.8107    -6.1648    -6.1644    -4.2725
                     A          A          A          A          A   
    1  SI 1  S    0.704893   0.704888  -0.189737   0.189773   0.000004
    2  SI 1  S    0.008823   0.008767   0.729028  -0.729259  -0.000228
    3  SI 1  X    0.000000   0.000000  -0.000000  -0.000000   0.000000
    4  SI 1  Y    0.000000   0.000000  -0.000000  -0.000000   0.000000
    5  SI 1  Z   -0.000023  -0.000003   0.000816  -0.000858  -0.703113
    6  SI 1  S   -0.011708  -0.012159   0.001561  -0.001803   0.001431
    7  SI 1  X    0.000000   0.000000  -0.000000  -0.000000   0.000000
    8  SI 1  Y    0.000000   0.000000  -0.000000  -0.000000   0.000000
    9  SI 1  Z   -0.000030   0.000092  -0.000496   0.000702  -0.013266
   10  SI 1  S    0.001319   0.002423  -0.000907   0.002905   0.000481
   11  SI 1  X    0.000000   0.000000  -0.000000  -0.000000   0.000000
   12  SI 1  Y    0.000000   0.000000  -0.000000  -0.000000   0.000000
   13  SI 1  Z   -0.000037  -0.000486   0.000172  -0.001103   0.003371
   14  SI 1 XX    0.004168   0.004153   0.002172  -0.002137  -0.000478
   15  SI 1 YY    0.004168   0.004153   0.002173  -0.002138  -0.000478
   16  SI 1 ZZ    0.004094   0.004262   0.002585  -0.002823   0.000357
   17  SI 1 XY   -0.000000  -0.000000  -0.000224   0.000225  -0.000069
   18  SI 1 XZ    0.000000   0.000000  -0.000000  -0.000000   0.000000
   19  SI 1 YZ    0.000000   0.000000  -0.000000  -0.000000   0.000000
   20  SI 2  S    0.704893  -0.704888  -0.189737  -0.189773   0.000004
   21  SI 2  S    0.008823  -0.008767   0.729028   0.729259  -0.000228
   22  SI 2  X    0.000000   0.000000  -0.000000  -0.000000   0.000000
   23  SI 2  Y    0.000000   0.000000  -0.000000  -0.000000   0.000000
   24  SI 2  Z    0.000023  -0.000003  -0.000816  -0.000858   0.703113
   25  SI 2  S   -0.011708   0.012159   0.001561   0.001803   0.001431
   26  SI 2  X    0.000000   0.000000  -0.000000  -0.000000   0.000000
   27  SI 2  Y    0.000000   0.000000  -0.000000  -0.000000   0.000000
   28  SI 2  Z    0.000030   0.000092   0.000496   0.000702   0.013266
   29  SI 2  S    0.001319  -0.002423  -0.000907  -0.002905   0.000481
   30  SI 2  X    0.000000   0.000000  -0.000000  -0.000000   0.000000
   31  SI 2  Y    0.000000   0.000000  -0.000000  -0.000000   0.000000
   32  SI 2  Z    0.000037  -0.000486  -0.000172  -0.001103  -0.003371
   33  SI 2 XX    0.004168  -0.004153   0.002172   0.002137  -0.000478
   34  SI 2 YY    0.004168  -0.004153   0.002173   0.002138  -0.000478
   35  SI 2 ZZ    0.004094  -0.004262   0.002585   0.002823   0.000357
   36  SI 2 XY   -0.000000   0.000000  -0.000224  -0.000225  -0.000069
   37  SI 2 XZ    0.000000   0.000000  -0.000000  -0.000000   0.000000
   38  SI 2 YZ    0.000000   0.000000  -0.000000  -0.000000   0.000000

                      6          7          8          9         10
                   -4.2710    -4.2689    -4.2687    -4.2623    -4.2622
                     A          A          A          A          A   
    1  SI 1  S    0.000161   0.000000  -0.000000  -0.000000   0.000000
    2  SI 1  S   -0.000749   0.000000  -0.000000  -0.000000   0.000000
    3  SI 1  X    0.000000  -0.496767   0.496761   0.498342   0.498343
    4  SI 1  Y    0.000000   0.498208  -0.498201   0.496901   0.496902
    5  SI 1  Z    0.703924   0.000000  -0.000000  -0.000000   0.000000
    6  SI 1  S   -0.003501   0.000000  -0.000000  -0.000000   0.000000
    7  SI 1  X    0.000000  -0.009397   0.009797   0.008919   0.009272
    8  SI 1  Y    0.000000   0.009424  -0.009825   0.008893   0.009245
    9  SI 1  Z    0.014029   0.000000  -0.000000  -0.000000   0.000000
   10  SI 1  S    0.002626   0.000000  -0.000000  -0.000000   0.000000
   11  SI 1  X    0.000000   0.002125  -0.003048  -0.001974  -0.002824
   12  SI 1  Y    0.000000  -0.002131   0.003057  -0.001968  -0.002816
   13  SI 1  Z   -0.003991   0.000000  -0.000000  -0.000000   0.000000
   14  SI 1 XX    0.000813   0.000000  -0.000000  -0.000000   0.000000
   15  SI 1 YY    0.000813   0.000000  -0.000000  -0.000000   0.000000
   16  SI 1 ZZ    0.000449   0.000000  -0.000000  -0.000000   0.000000
   17  SI 1 XY    0.000045   0.000000  -0.000000  -0.000000   0.000000
   18  SI 1 XZ    0.000000  -0.000167  -0.000063   0.000204   0.000027
   19  SI 1 YZ    0.000000   0.000168   0.000063   0.000204   0.000027
   20  SI 2  S   -0.000161   0.000000  -0.000000  -0.000000   0.000000
   21  SI 2  S    0.000749   0.000000  -0.000000  -0.000000   0.000000
   22  SI 2  X    0.000000  -0.496767  -0.496761   0.498342  -0.498343
   23  SI 2  Y    0.000000   0.498208   0.498201   0.496901  -0.496902
   24  SI 2  Z    0.703924   0.000000  -0.000000  -0.000000   0.000000
   25  SI 2  S    0.003501   0.000000  -0.000000  -0.000000   0.000000
   26  SI 2  X    0.000000  -0.009397  -0.009797   0.008919  -0.009272
   27  SI 2  Y    0.000000   0.009424   0.009825   0.008893  -0.009245
   28  SI 2  Z    0.014029   0.000000  -0.000000  -0.000000   0.000000
   29  SI 2  S   -0.002626   0.000000  -0.000000  -0.000000   0.000000
   30  SI 2  X    0.000000   0.002125   0.003048  -0.001974   0.002824
   31  SI 2  Y    0.000000  -0.002131  -0.003057  -0.001968   0.002816
   32  SI 2  Z   -0.003991   0.000000  -0.000000  -0.000000   0.000000
   33  SI 2 XX   -0.000813   0.000000  -0.000000  -0.000000   0.000000
   34  SI 2 YY   -0.000813   0.000000  -0.000000  -0.000000   0.000000
   35  SI 2 ZZ   -0.000449   0.000000  -0.000000  -0.000000   0.000000
   36  SI 2 XY   -0.000045   0.000000  -0.000000  -0.000000   0.000000
   37  SI 2 XZ    0.000000   0.000167  -0.000063  -0.000204   0.000027
   38  SI 2 YZ    0.000000  -0.000168   0.000063  -0.000204   0.000027

                     11         12         13         14         15
                   -0.7468    -0.5149    -0.3559    -0.3170    -0.2853
                     A          A          A          A          A   
    1  SI 1  S    0.043739   0.043799  -0.011686  -0.000000  -0.000000
    2  SI 1  S   -0.211601  -0.210545   0.058719  -0.000000  -0.000000
    3  SI 1  X    0.000000   0.000000  -0.000000   0.106972  -0.105412
    4  SI 1  Y    0.000000   0.000000  -0.000000  -0.107282  -0.105107
    5  SI 1  Z    0.064374  -0.066061   0.176255  -0.000000  -0.000000
    6  SI 1  S    0.448797   0.500710  -0.141329  -0.000000  -0.000000
    7  SI 1  X    0.000000   0.000000  -0.000000  -0.303934   0.297236
    8  SI 1  Y    0.000000   0.000000  -0.000000   0.304815   0.296377
    9  SI 1  Z   -0.145984   0.192631  -0.501911  -0.000000  -0.000000
   10  SI 1  S    0.139183   0.245376  -0.220433  -0.000000  -0.000000
   11  SI 1  X    0.000000   0.000000  -0.000000  -0.175741   0.183873
   12  SI 1  Y    0.000000   0.000000  -0.000000   0.176251   0.183342
   13  SI 1  Z    0.002394   0.067385  -0.171876  -0.000000  -0.000000
   14  SI 1 XX   -0.012865   0.003080  -0.014245  -0.000000  -0.000000
   15  SI 1 YY   -0.012806   0.003139  -0.014259  -0.000000  -0.000000
   16  SI 1 ZZ    0.056397   0.006766   0.035692  -0.000000  -0.000000
   17  SI 1 XY   -0.011779  -0.011916   0.002786  -0.000000  -0.000000
   18  SI 1 XZ    0.000000   0.000000  -0.000000   0.046932  -0.042678
   19  SI 1 YZ    0.000000   0.000000  -0.000000  -0.047068  -0.042554
   20  SI 2  S    0.043739  -0.043799  -0.011686  -0.000000  -0.000000
   21  SI 2  S   -0.211601   0.210545   0.058719  -0.000000  -0.000000
   22  SI 2  X    0.000000   0.000000  -0.000000   0.106972  -0.105412
   23  SI 2  Y    0.000000   0.000000  -0.000000  -0.107282  -0.105107
   24  SI 2  Z   -0.064374  -0.066061  -0.176255  -0.000000  -0.000000
   25  SI 2  S    0.448797  -0.500710  -0.141329  -0.000000  -0.000000
   26  SI 2  X    0.000000   0.000000  -0.000000  -0.303934   0.297236
   27  SI 2  Y    0.000000   0.000000  -0.000000   0.304815   0.296377
   28  SI 2  Z    0.145984   0.192631   0.501911  -0.000000  -0.000000
   29  SI 2  S    0.139183  -0.245376  -0.220433  -0.000000  -0.000000
   30  SI 2  X    0.000000   0.000000  -0.000000  -0.175741   0.183873
   31  SI 2  Y    0.000000   0.000000  -0.000000   0.176251   0.183342
   32  SI 2  Z   -0.002394   0.067385   0.171876  -0.000000  -0.000000
   33  SI 2 XX   -0.012865  -0.003080  -0.014245  -0.000000  -0.000000
   34  SI 2 YY   -0.012806  -0.003139  -0.014259  -0.000000  -0.000000
   35  SI 2 ZZ    0.056397  -0.006766   0.035692  -0.000000  -0.000000
   36  SI 2 XY   -0.011779   0.011916   0.002786  -0.000000  -0.000000
   37  SI 2 XZ    0.000000   0.000000  -0.000000  -0.046932   0.042678
   38  SI 2 YZ    0.000000   0.000000  -0.000000   0.047068   0.042554

                     16         17         18         19         20
                    0.0080     0.0306     0.1360     0.2218     0.2747
                     A          A          A          A          A   
    1  SI 1  S    0.000000   0.000000  -0.023484   0.027415  -0.026217
    2  SI 1  S    0.000000   0.000000   0.127477  -0.000385   0.055485
    3  SI 1  X   -0.098575   0.095216   0.000000  -0.000000   0.000000
    4  SI 1  Y    0.098861   0.094940   0.000000  -0.000000   0.000000
    5  SI 1  Z    0.000000   0.000000  -0.059934   0.040316   0.123524
    6  SI 1  S    0.000000   0.000000  -0.255255   0.862769  -0.627606
    7  SI 1  X    0.274137  -0.259401   0.000000  -0.000000   0.000000
    8  SI 1  Y   -0.274932  -0.258651   0.000000  -0.000000   0.000000
    9  SI 1  Z    0.000000   0.000000   0.151613  -0.279478  -0.601410
   10  SI 1  S    0.000000   0.000000  -2.145717  -0.749083   0.811233
   11  SI 1  X    0.443359  -0.462988   0.000000  -0.000000   0.000000
   12  SI 1  Y   -0.444645  -0.461649   0.000000  -0.000000   0.000000
   13  SI 1  Z    0.000000   0.000000   1.869603   0.574625   0.810184
   14  SI 1 XX    0.000000   0.000000  -0.030103  -0.035515  -0.050298
   15  SI 1 YY    0.000000   0.000000  -0.030169  -0.035541  -0.050345
   16  SI 1 ZZ    0.000000   0.000000   0.070073   0.200842   0.029100
   17  SI 1 XY    0.000000   0.000000   0.013171   0.005065   0.009334
   18  SI 1 XZ    0.029249  -0.032064   0.000000  -0.000000   0.000000
   19  SI 1 YZ   -0.029334  -0.031971   0.000000  -0.000000   0.000000
   20  SI 2  S    0.000000   0.000000   0.023484   0.027415  -0.026217
   21  SI 2  S    0.000000   0.000000  -0.127477  -0.000385   0.055485
   22  SI 2  X    0.098575  -0.095216   0.000000  -0.000000   0.000000
   23  SI 2  Y   -0.098861  -0.094940   0.000000  -0.000000   0.000000
   24  SI 2  Z    0.000000   0.000000  -0.059934  -0.040316  -0.123524
   25  SI 2  S    0.000000   0.000000   0.255255   0.862769  -0.627606
   26  SI 2  X   -0.274137   0.259401   0.000000  -0.000000   0.000000
   27  SI 2  Y    0.274932   0.258651   0.000000  -0.000000   0.000000
   28  SI 2  Z    0.000000   0.000000   0.151613   0.279478   0.601410
   29  SI 2  S    0.000000   0.000000   2.145717  -0.749083   0.811233
   30  SI 2  X   -0.443359   0.462988   0.000000  -0.000000   0.000000
   31  SI 2  Y    0.444645   0.461649   0.000000  -0.000000   0.000000
   32  SI 2  Z    0.000000   0.000000   1.869603  -0.574625  -0.810184
   33  SI 2 XX    0.000000   0.000000   0.030103  -0.035515  -0.050298
   34  SI 2 YY    0.000000   0.000000   0.030169  -0.035541  -0.050345
   35  SI 2 ZZ    0.000000   0.000000  -0.070073   0.200842   0.029100
   36  SI 2 XY    0.000000   0.000000  -0.013171   0.005065   0.009334
   37  SI 2 XZ    0.029249  -0.032064   0.000000  -0.000000   0.000000
   38  SI 2 YZ   -0.029334  -0.031971   0.000000  -0.000000   0.000000

                     21         22         23         24         25
                    0.3127     0.3335     0.3490     0.3830     0.4016
                     A          A          A          A          A   
    1  SI 1  S   -0.000000   0.000000  -0.023345  -0.000000   0.000000
    2  SI 1  S   -0.000000   0.000000  -0.029558  -0.000000   0.000000
    3  SI 1  X    0.119520  -0.121817  -0.000000   0.144970  -0.147058
    4  SI 1  Y   -0.119866  -0.121464  -0.000000  -0.145391  -0.146632
    5  SI 1  Z   -0.000000   0.000000   0.147842  -0.000000   0.000000
    6  SI 1  S   -0.000000   0.000000  -0.855523  -0.000000   0.000000
    7  SI 1  X   -0.572943   0.581606  -0.000000  -0.673618   0.680848
    8  SI 1  Y    0.574605   0.579925  -0.000000   0.675572   0.678879
    9  SI 1  Z   -0.000000   0.000000  -0.677610  -0.000000   0.000000
   10  SI 1  S   -0.000000   0.000000   2.418641  -0.000000   0.000000
   11  SI 1  X    0.529549  -0.529300  -0.000000   0.853529  -0.847137
   12  SI 1  Y   -0.531085  -0.527770  -0.000000  -0.856004  -0.844687
   13  SI 1  Z   -0.000000   0.000000  -0.472619  -0.000000   0.000000
   14  SI 1 XX   -0.000000   0.000000   0.012643  -0.000000   0.000000
   15  SI 1 YY   -0.000000   0.000000   0.012675  -0.000000   0.000000
   16  SI 1 ZZ   -0.000000   0.000000  -0.160797  -0.000000   0.000000
   17  SI 1 XY   -0.000000   0.000000  -0.006390  -0.000000   0.000000
   18  SI 1 XZ    0.099127  -0.095203  -0.000000  -0.011683   0.018075
   19  SI 1 YZ   -0.099415  -0.094928  -0.000000   0.011717   0.018022
   20  SI 2  S   -0.000000   0.000000   0.023345  -0.000000   0.000000
   21  SI 2  S   -0.000000   0.000000   0.029558  -0.000000   0.000000
   22  SI 2  X    0.119520  -0.121817  -0.000000  -0.144970   0.147058
   23  SI 2  Y   -0.119866  -0.121464  -0.000000   0.145391   0.146632
   24  SI 2  Z   -0.000000   0.000000   0.147842  -0.000000   0.000000
   25  SI 2  S   -0.000000   0.000000   0.855523  -0.000000   0.000000
   26  SI 2  X   -0.572943   0.581606  -0.000000   0.673618  -0.680848
   27  SI 2  Y    0.574605   0.579925  -0.000000  -0.675572  -0.678879
   28  SI 2  Z   -0.000000   0.000000  -0.677610  -0.000000   0.000000
   29  SI 2  S   -0.000000   0.000000  -2.418641  -0.000000   0.000000
   30  SI 2  X    0.529549  -0.529300  -0.000000  -0.853529   0.847137
   31  SI 2  Y   -0.531085  -0.527770  -0.000000   0.856004   0.844687
   32  SI 2  Z   -0.000000   0.000000  -0.472619  -0.000000   0.000000
   33  SI 2 XX   -0.000000   0.000000  -0.012643  -0.000000   0.000000
   34  SI 2 YY   -0.000000   0.000000  -0.012675  -0.000000   0.000000
   35  SI 2 ZZ   -0.000000   0.000000   0.160797  -0.000000   0.000000
   36  SI 2 XY   -0.000000   0.000000   0.006390  -0.000000   0.000000
   37  SI 2 XZ   -0.099127   0.095203  -0.000000  -0.011683   0.018075
   38  SI 2 YZ    0.099415   0.094928  -0.000000   0.011717   0.018022

                     26         27         28         29         30
                    0.4871     0.5535     0.5750     0.6625     0.6633
                     A          A          A          A          A   
    1  SI 1  S    0.036908   0.000000   0.000000  -0.000421   0.000000
    2  SI 1  S   -0.002593   0.000000   0.000000  -0.004703   0.000000
    3  SI 1  X   -0.000000   0.051336   0.049430   0.000000   0.000000
    4  SI 1  Y   -0.000000  -0.051484   0.049287   0.000000   0.000000
    5  SI 1  Z    0.169530   0.000000   0.000000  -0.009291   0.000000
    6  SI 1  S    1.183975   0.000000   0.000000  -0.025717   0.000000
    7  SI 1  X   -0.000000  -0.216525  -0.208882   0.000000   0.000000
    8  SI 1  Y   -0.000000   0.217153  -0.208278   0.000000   0.000000
    9  SI 1  Z   -0.773590   0.000000   0.000000   0.056084   0.000000
   10  SI 1  S   -4.233595   0.000000   0.000000   0.024048   0.000000
   11  SI 1  X   -0.000000   0.093687   0.089309   0.000000   0.000000
   12  SI 1  Y   -0.000000  -0.093959   0.089051   0.000000   0.000000
   13  SI 1  Z    2.470428   0.000000   0.000000  -0.066834   0.000000
   14  SI 1 XX    0.122843   0.000000   0.000000  -0.041313  -0.601838
   15  SI 1 YY    0.122944   0.000000   0.000000  -0.044777   0.601838
   16  SI 1 ZZ   -0.120627   0.000000   0.000000   0.062288   0.000000
   17  SI 1 XY   -0.019995   0.000000   0.000000   0.690596   0.002012
   18  SI 1 XZ   -0.000000  -0.445832  -0.448480   0.000000   0.000000
   19  SI 1 YZ   -0.000000   0.447125  -0.447183   0.000000   0.000000
   20  SI 2  S   -0.036908   0.000000   0.000000  -0.000421   0.000000
   21  SI 2  S    0.002593   0.000000   0.000000  -0.004703   0.000000
   22  SI 2  X   -0.000000   0.051336   0.049430   0.000000   0.000000
   23  SI 2  Y   -0.000000  -0.051484   0.049287   0.000000   0.000000
   24  SI 2  Z    0.169530   0.000000   0.000000   0.009291   0.000000
   25  SI 2  S   -1.183975   0.000000   0.000000  -0.025717   0.000000
   26  SI 2  X   -0.000000  -0.216525  -0.208882   0.000000   0.000000
   27  SI 2  Y   -0.000000   0.217153  -0.208278   0.000000   0.000000
   28  SI 2  Z   -0.773590   0.000000   0.000000  -0.056084   0.000000
   29  SI 2  S    4.233595   0.000000   0.000000   0.024048   0.000000
   30  SI 2  X   -0.000000   0.093687   0.089309   0.000000   0.000000
   31  SI 2  Y   -0.000000  -0.093959   0.089051   0.000000   0.000000
   32  SI 2  Z    2.470428   0.000000   0.000000   0.066834   0.000000
   33  SI 2 XX   -0.122843   0.000000   0.000000  -0.041313  -0.601838
   34  SI 2 YY   -0.122944   0.000000   0.000000  -0.044777   0.601838
   35  SI 2 ZZ    0.120627   0.000000   0.000000   0.062288   0.000000
   36  SI 2 XY    0.019995   0.000000   0.000000   0.690596   0.002012
   37  SI 2 XZ   -0.000000   0.445832   0.448480   0.000000   0.000000
   38  SI 2 YZ   -0.000000  -0.447125   0.447183   0.000000   0.000000

                     31         32         33         34         35
                    0.7600     0.7606     0.7655     0.9244     0.9477
                     A          A          A          A          A   
    1  SI 1  S   -0.000000  -0.002392  -0.014162  -0.000000  -0.000000
    2  SI 1  S   -0.000000   0.008483   0.007662  -0.000000  -0.000000
    3  SI 1  X   -0.000000   0.000000   0.000000  -0.020194   0.022120
    4  SI 1  Y   -0.000000   0.000000   0.000000   0.020253   0.022056
    5  SI 1  Z   -0.000000  -0.007702  -0.069817  -0.000000  -0.000000
    6  SI 1  S   -0.000000  -0.052716  -0.420471  -0.000000  -0.000000
    7  SI 1  X   -0.000000   0.000000   0.000000   0.066466  -0.074808
    8  SI 1  Y   -0.000000   0.000000   0.000000  -0.066659  -0.074591
    9  SI 1  Z   -0.000000   0.036503   0.422292  -0.000000  -0.000000
   10  SI 1  S   -0.000000   0.035940   0.243061  -0.000000  -0.000000
   11  SI 1  X   -0.000000   0.000000   0.000000   0.131234  -0.125607
   12  SI 1  Y   -0.000000   0.000000   0.000000  -0.131615  -0.125244
   13  SI 1  Z   -0.000000  -0.023172  -0.476764  -0.000000  -0.000000
   14  SI 1 XX   -0.623474   0.005237  -0.359013  -0.000000  -0.000000
   15  SI 1 YY    0.623474   0.008844  -0.358633  -0.000000  -0.000000
   16  SI 1 ZZ   -0.000000  -0.000031   0.614092  -0.000000  -0.000000
   17  SI 1 XY    0.002085  -0.719347  -0.075898  -0.000000  -0.000000
   18  SI 1 XZ   -0.000000   0.000000   0.000000  -0.571072   0.572416
   19  SI 1 YZ   -0.000000   0.000000   0.000000   0.572728   0.570761
   20  SI 2  S   -0.000000   0.002392  -0.014162  -0.000000  -0.000000
   21  SI 2  S   -0.000000  -0.008483   0.007662  -0.000000  -0.000000
   22  SI 2  X   -0.000000   0.000000   0.000000   0.020194  -0.022120
   23  SI 2  Y   -0.000000   0.000000   0.000000  -0.020253  -0.022056
   24  SI 2  Z   -0.000000  -0.007702   0.069817  -0.000000  -0.000000
   25  SI 2  S   -0.000000   0.052716  -0.420471  -0.000000  -0.000000
   26  SI 2  X   -0.000000   0.000000   0.000000  -0.066466   0.074808
   27  SI 2  Y   -0.000000   0.000000   0.000000   0.066659   0.074591
   28  SI 2  Z   -0.000000   0.036503  -0.422292  -0.000000  -0.000000
   29  SI 2  S   -0.000000  -0.035940   0.243061  -0.000000  -0.000000
   30  SI 2  X   -0.000000   0.000000   0.000000  -0.131234   0.125607
   31  SI 2  Y   -0.000000   0.000000   0.000000   0.131615   0.125244
   32  SI 2  Z   -0.000000  -0.023172   0.476764  -0.000000  -0.000000
   33  SI 2 XX    0.623474  -0.005237  -0.359013  -0.000000  -0.000000
   34  SI 2 YY   -0.623474  -0.008844  -0.358633  -0.000000  -0.000000
   35  SI 2 ZZ   -0.000000   0.000031   0.614092  -0.000000  -0.000000
   36  SI 2 XY   -0.002085   0.719347  -0.075898  -0.000000  -0.000000
   37  SI 2 XZ   -0.000000   0.000000   0.000000  -0.571072   0.572416
   38  SI 2 YZ   -0.000000   0.000000   0.000000   0.572728   0.570761

                     36         37         38
                    1.2426     2.5559     2.6387
                     A          A          A   
    1  SI 1  S   -0.016906   0.102752   0.099821
    2  SI 1  S    0.107984  -0.487009  -0.459002
    3  SI 1  X   -0.000000   0.000000  -0.000000
    4  SI 1  Y   -0.000000   0.000000  -0.000000
    5  SI 1  Z   -0.154849   0.012610  -0.048596
    6  SI 1  S   -0.219114   4.143388   4.290319
    7  SI 1  X   -0.000000   0.000000  -0.000000
    8  SI 1  Y   -0.000000   0.000000  -0.000000
    9  SI 1  Z    0.839087  -0.015889   0.230367
   10  SI 1  S   -1.420801  -0.187390  -0.031084
   11  SI 1  X   -0.000000   0.000000  -0.000000
   12  SI 1  Y   -0.000000   0.000000  -0.000000
   13  SI 1  Z    0.651036  -0.002700  -0.144529
   14  SI 1 XX    0.525223  -1.798596  -1.776962
   15  SI 1 YY    0.525180  -1.798587  -1.776952
   16  SI 1 ZZ   -0.980414  -1.702256  -2.082251
   17  SI 1 XY    0.008598  -0.001686  -0.001982
   18  SI 1 XZ   -0.000000   0.000000  -0.000000
   19  SI 1 YZ   -0.000000   0.000000  -0.000000
   20  SI 2  S    0.016906   0.102752  -0.099821
   21  SI 2  S   -0.107984  -0.487009   0.459002
   22  SI 2  X   -0.000000   0.000000  -0.000000
   23  SI 2  Y   -0.000000   0.000000  -0.000000
   24  SI 2  Z   -0.154849  -0.012610  -0.048596
   25  SI 2  S    0.219114   4.143388  -4.290319
   26  SI 2  X   -0.000000   0.000000  -0.000000
   27  SI 2  Y   -0.000000   0.000000  -0.000000
   28  SI 2  Z    0.839087   0.015889   0.230367
   29  SI 2  S    1.420801  -0.187390   0.031084
   30  SI 2  X   -0.000000   0.000000  -0.000000
   31  SI 2  Y   -0.000000   0.000000  -0.000000
   32  SI 2  Z    0.651036   0.002700  -0.144529
   33  SI 2 XX   -0.525223  -1.798596   1.776962
   34  SI 2 YY   -0.525180  -1.798587   1.776952
   35  SI 2 ZZ    0.980414  -1.702256   2.082251
   36  SI 2 XY   -0.008598  -0.001686   0.001982
   37  SI 2 XZ   -0.000000   0.000000  -0.000000
   38  SI 2 YZ   -0.000000   0.000000  -0.000000

 LZ VALUE ANALYSIS FOR THE MOS
 ----------------------------------------
 MO     1 (    1) HAS LZ(WEIGHT)= 0.00(100.0%) 
 MO     2 (    2) HAS LZ(WEIGHT)= 0.00(100.0%) 
 MO     3 (    3) HAS LZ(WEIGHT)= 0.00(100.0%) 
 MO     4 (    4) HAS LZ(WEIGHT)= 0.00(100.0%) 
 MO     5 (    5) HAS LZ(WEIGHT)= 0.00(100.0%) 
 MO     6 (    6) HAS LZ(WEIGHT)= 0.00(100.0%) 
 MO     7 (    7) HAS LZ(WEIGHT)= 0.00(100.0%) 
 MO     8 (    8) HAS LZ(WEIGHT)= 0.00(100.0%) 
 MO     9 (    9) HAS LZ(WEIGHT)= 0.00(100.0%) 
 MO    10 (   10) HAS LZ(WEIGHT)= 0.00(100.0%) 
 MO    11 (   11) HAS LZ(WEIGHT)= 0.00(100.0%) 
 MO    12 (   12) HAS LZ(WEIGHT)= 0.00(100.0%) 
 MO    13 (   13) HAS LZ(WEIGHT)= 0.00(100.0%) 
 MO    14 (   14) HAS LZ(WEIGHT)= 0.00(100.0%) 
 MO    15 (   15) HAS LZ(WEIGHT)= 0.00(100.0%) 
 MO    16 (   16) HAS LZ(WEIGHT)= 0.00(100.0%) 
 MO    17 (   17) HAS LZ(WEIGHT)= 0.00(100.0%) 
 MO    18 (   18) HAS LZ(WEIGHT)= 0.00(100.0%) 
 MO    19 (   19) HAS LZ(WEIGHT)= 0.00(100.0%) 
 MO    20 (   20) HAS LZ(WEIGHT)= 0.00(100.0%) 
 MO    21 (   21) HAS LZ(WEIGHT)= 0.00(100.0%) 
 MO    22 (   22) HAS LZ(WEIGHT)= 0.00(100.0%) 
 MO    23 (   23) HAS LZ(WEIGHT)= 0.00(100.0%) 
 MO    24 (   24) HAS LZ(WEIGHT)= 0.00(100.0%) 
 MO    25 (   25) HAS LZ(WEIGHT)= 0.00(100.0%) 
 MO    26 (   26) HAS LZ(WEIGHT)= 0.00(100.0%) 
 MO    27 (   27) HAS LZ(WEIGHT)= 0.00(100.0%) 
 MO    28 (   28) HAS LZ(WEIGHT)= 0.00(100.0%) 
 MO    29 (   29) HAS LZ(WEIGHT)= 0.00(100.0%) 
 MO    30 (   30) HAS LZ(WEIGHT)= 0.00(100.0%) 
 MO    31 (   31) HAS LZ(WEIGHT)= 0.00(100.0%) 
 MO    32 (   32) HAS LZ(WEIGHT)= 0.00(100.0%) 
 MO    33 (   33) HAS LZ(WEIGHT)= 0.00(100.0%) 
 MO    34 (   34) HAS LZ(WEIGHT)= 0.00(100.0%) 
 MO    35 (   35) HAS LZ(WEIGHT)= 0.00(100.0%) 
 MO    36 (   36) HAS LZ(WEIGHT)= 0.00(100.0%) 
 MO    37 (   37) HAS LZ(WEIGHT)= 0.00(100.0%) 
 MO    38 (   38) HAS LZ(WEIGHT)= 0.00(100.0%) 

  ----- BETA SET ----- 

          ------------
          EIGENVECTORS
          ------------

                      1          2          3          4          5
                  -68.8059   -68.8059    -6.1592    -6.1590    -4.2599
                     A          A          A          A          A   
    1  SI 1  S   -0.704903   0.704908  -0.189733   0.189756  -0.000000
    2  SI 1  S   -0.008708   0.008763   0.729174  -0.729334  -0.000000
    3  SI 1  X    0.000000   0.000000  -0.000000  -0.000000   0.498366
    4  SI 1  Y    0.000000   0.000000  -0.000000  -0.000000   0.496925
    5  SI 1  Z    0.000008  -0.000027  -0.001202   0.001111  -0.000000
    6  SI 1  S    0.011996  -0.011554   0.001975  -0.002247  -0.000000
    7  SI 1  X    0.000000   0.000000  -0.000000  -0.000000   0.008837
    8  SI 1  Y    0.000000   0.000000  -0.000000  -0.000000   0.008811
    9  SI 1  Z   -0.000094  -0.000029  -0.000086   0.000416  -0.000000
   10  SI 1  S   -0.002397   0.001304  -0.001044   0.002808  -0.000000
   11  SI 1  X    0.000000   0.000000  -0.000000  -0.000000  -0.001985
   12  SI 1  Y    0.000000   0.000000  -0.000000  -0.000000  -0.001979
   13  SI 1  Z    0.000483  -0.000038   0.000021  -0.000869  -0.000000
   14  SI 1 XX   -0.004098   0.004113   0.001852  -0.001817  -0.000000
   15  SI 1 YY   -0.004098   0.004113   0.001851  -0.001817  -0.000000
   16  SI 1 ZZ   -0.004211   0.004048   0.001784  -0.001924  -0.000000
   17  SI 1 XY    0.000003  -0.000004   0.000057   0.000016  -0.000000
   18  SI 1 XZ    0.000000   0.000000  -0.000000  -0.000000   0.000068
   19  SI 1 YZ    0.000000   0.000000  -0.000000  -0.000000   0.000068
   20  SI 2  S    0.704903   0.704908  -0.189733  -0.189756  -0.000000
   21  SI 2  S    0.008708   0.008763   0.729174   0.729334  -0.000000
   22  SI 2  X    0.000000   0.000000  -0.000000  -0.000000   0.498366
   23  SI 2  Y    0.000000   0.000000  -0.000000  -0.000000   0.496925
   24  SI 2  Z    0.000008   0.000027   0.001202   0.001111  -0.000000
   25  SI 2  S   -0.011996  -0.011554   0.001975   0.002247  -0.000000
   26  SI 2  X    0.000000   0.000000  -0.000000  -0.000000   0.008837
   27  SI 2  Y    0.000000   0.000000  -0.000000  -0.000000   0.008811
   28  SI 2  Z   -0.000094   0.000029   0.000086   0.000416  -0.000000
   29  SI 2  S    0.002397   0.001304  -0.001044  -0.002808  -0.000000
   30  SI 2  X    0.000000   0.000000  -0.000000  -0.000000  -0.001985
   31  SI 2  Y    0.000000   0.000000  -0.000000  -0.000000  -0.001979
   32  SI 2  Z    0.000483   0.000038  -0.000021  -0.000869  -0.000000
   33  SI 2 XX    0.004098   0.004113   0.001852   0.001817  -0.000000
   34  SI 2 YY    0.004098   0.004113   0.001851   0.001817  -0.000000
   35  SI 2 ZZ    0.004211   0.004048   0.001784   0.001924  -0.000000
   36  SI 2 XY   -0.000003  -0.000004   0.000057  -0.000016  -0.000000
   37  SI 2 XZ    0.000000   0.000000  -0.000000  -0.000000  -0.000068
   38  SI 2 YZ    0.000000   0.000000  -0.000000  -0.000000  -0.000068

                      6          7          8          9         10
                   -4.2597    -4.2564    -4.2562    -4.2542    -4.2529
                     A          A          A          A          A   
    1  SI 1  S    0.000000   0.000000   0.000000   0.000391  -0.000258
    2  SI 1  S    0.000000   0.000000   0.000000  -0.001674   0.000841
    3  SI 1  X    0.498342  -0.496725  -0.496673   0.000000  -0.000000
    4  SI 1  Y    0.496901   0.498165   0.498113   0.000000  -0.000000
    5  SI 1  Z    0.000000   0.000000   0.000000  -0.703090   0.703584
    6  SI 1  S    0.000000   0.000000   0.000000  -0.001295   0.000043
    7  SI 1  X    0.009286  -0.009603  -0.010171   0.000000  -0.000000
    8  SI 1  Y    0.009259   0.009631   0.010200   0.000000  -0.000000
    9  SI 1  Z    0.000000   0.000000   0.000000  -0.013518   0.015645
   10  SI 1  S    0.000000   0.000000   0.000000   0.000912   0.002070
   11  SI 1  X   -0.002853   0.002324   0.003336   0.000000  -0.000000
   12  SI 1  Y   -0.002844  -0.002331  -0.003346   0.000000  -0.000000
   13  SI 1  Z    0.000000   0.000000   0.000000   0.003806  -0.004482
   14  SI 1 XX    0.000000   0.000000   0.000000   0.000272  -0.000134
   15  SI 1 YY    0.000000   0.000000   0.000000   0.000271  -0.000134
   16  SI 1 ZZ    0.000000   0.000000   0.000000   0.001048  -0.001789
   17  SI 1 XY    0.000000   0.000000   0.000000   0.000123  -0.000025
   18  SI 1 XZ   -0.000227  -0.000102   0.000285   0.000000  -0.000000
   19  SI 1 YZ   -0.000226   0.000103  -0.000286   0.000000  -0.000000
   20  SI 2  S    0.000000   0.000000   0.000000   0.000391   0.000258
   21  SI 2  S    0.000000   0.000000   0.000000  -0.001674  -0.000841
   22  SI 2  X   -0.498342  -0.496725   0.496673   0.000000  -0.000000
   23  SI 2  Y   -0.496901   0.498165  -0.498113   0.000000  -0.000000
   24  SI 2  Z    0.000000   0.000000   0.000000   0.703090   0.703584
   25  SI 2  S    0.000000   0.000000   0.000000  -0.001295  -0.000043
   26  SI 2  X   -0.009286  -0.009603   0.010171   0.000000  -0.000000
   27  SI 2  Y   -0.009259   0.009631  -0.010200   0.000000  -0.000000
   28  SI 2  Z    0.000000   0.000000   0.000000   0.013518   0.015645
   29  SI 2  S    0.000000   0.000000   0.000000   0.000912  -0.002070
   30  SI 2  X    0.002853   0.002324  -0.003336   0.000000  -0.000000
   31  SI 2  Y    0.002844  -0.002331   0.003346   0.000000  -0.000000
   32  SI 2  Z    0.000000   0.000000   0.000000  -0.003806  -0.004482
   33  SI 2 XX    0.000000   0.000000   0.000000   0.000272   0.000134
   34  SI 2 YY    0.000000   0.000000   0.000000   0.000271   0.000134
   35  SI 2 ZZ    0.000000   0.000000   0.000000   0.001048   0.001789
   36  SI 2 XY    0.000000   0.000000   0.000000   0.000123   0.000025
   37  SI 2 XZ   -0.000227   0.000102   0.000285   0.000000  -0.000000
   38  SI 2 YZ   -0.000226  -0.000103  -0.000286   0.000000  -0.000000

                     11         12         13         14         15
                   -0.6304    -0.4069    -0.2682    -0.0204    -0.0140
                     A          A          A          A          A   
    1  SI 1  S    0.045001   0.045985   0.000000   0.004897  -0.000000
    2  SI 1  S   -0.218626  -0.223808   0.000000  -0.033504  -0.000000
    3  SI 1  X    0.000000  -0.000000  -0.104136  -0.000000   0.088564
    4  SI 1  Y    0.000000  -0.000000  -0.103835  -0.000000  -0.088821
    5  SI 1  Z    0.049909  -0.041783   0.000000  -0.154244  -0.000000
    6  SI 1  S    0.487164   0.533781   0.000000   0.022209  -0.000000
    7  SI 1  X    0.000000  -0.000000   0.291503  -0.000000  -0.217677
    8  SI 1  Y    0.000000  -0.000000   0.290660  -0.000000   0.218309
    9  SI 1  Z   -0.105145   0.092558   0.000000   0.386728  -0.000000
   10  SI 1  S    0.151285   0.399835   0.000000   0.322450  -0.000000
   11  SI 1  X    0.000000  -0.000000   0.188838  -0.000000  -0.252429
   12  SI 1  Y    0.000000  -0.000000   0.188292  -0.000000   0.253161
   13  SI 1  Z   -0.001213  -0.016687   0.000000   0.329954  -0.000000
   14  SI 1 XX   -0.010263   0.008702   0.000000   0.012735  -0.000000
   15  SI 1 YY   -0.010343   0.008662   0.000000   0.012739  -0.000000
   16  SI 1 ZZ    0.014336  -0.028437   0.000000  -0.030083  -0.000000
   17  SI 1 XY    0.015965   0.008025   0.000000  -0.000866  -0.000000
   18  SI 1 XZ    0.000000  -0.000000  -0.042860  -0.000000   0.020923
   19  SI 1 YZ    0.000000  -0.000000  -0.042736  -0.000000  -0.020984
   20  SI 2  S    0.045001  -0.045985   0.000000   0.004897  -0.000000
   21  SI 2  S   -0.218626   0.223808   0.000000  -0.033504  -0.000000
   22  SI 2  X    0.000000  -0.000000  -0.104136  -0.000000   0.088564
   23  SI 2  Y    0.000000  -0.000000  -0.103835  -0.000000  -0.088821
   24  SI 2  Z   -0.049909  -0.041783   0.000000   0.154244  -0.000000
   25  SI 2  S    0.487164  -0.533781   0.000000   0.022209  -0.000000
   26  SI 2  X    0.000000  -0.000000   0.291503  -0.000000  -0.217677
   27  SI 2  Y    0.000000  -0.000000   0.290660  -0.000000   0.218309
   28  SI 2  Z    0.105145   0.092558   0.000000  -0.386728  -0.000000
   29  SI 2  S    0.151285  -0.399835   0.000000   0.322450  -0.000000
   30  SI 2  X    0.000000  -0.000000   0.188838  -0.000000  -0.252429
   31  SI 2  Y    0.000000  -0.000000   0.188292  -0.000000   0.253161
   32  SI 2  Z    0.001213  -0.016687   0.000000  -0.329954  -0.000000
   33  SI 2 XX   -0.010263  -0.008702   0.000000   0.012735  -0.000000
   34  SI 2 YY   -0.010343  -0.008662   0.000000   0.012739  -0.000000
   35  SI 2 ZZ    0.014336   0.028437   0.000000  -0.030083  -0.000000
   36  SI 2 XY    0.015965  -0.008025   0.000000  -0.000866  -0.000000
   37  SI 2 XZ    0.000000  -0.000000   0.042860  -0.000000  -0.020923
   38  SI 2 YZ    0.000000  -0.000000   0.042736  -0.000000   0.020984

                     16         17         18         19         20
                    0.0474     0.0869     0.1690     0.2637     0.3200
                     A          A          A          A          A   
    1  SI 1  S    0.000000   0.000000  -0.019956   0.032786   0.021709
    2  SI 1  S    0.000000   0.000000   0.105394  -0.014175  -0.055474
    3  SI 1  X   -0.094601   0.083539  -0.000000  -0.000000  -0.000000
    4  SI 1  Y   -0.094328  -0.083781  -0.000000  -0.000000  -0.000000
    5  SI 1  Z    0.000000   0.000000  -0.041155   0.027956  -0.160024
    6  SI 1  S    0.000000   0.000000  -0.232348   0.982547   0.478895
    7  SI 1  X    0.256323  -0.204712  -0.000000  -0.000000  -0.000000
    8  SI 1  Y    0.255582   0.205305  -0.000000  -0.000000  -0.000000
    9  SI 1  Z    0.000000   0.000000   0.058840  -0.218211   0.722697
   10  SI 1  S    0.000000   0.000000  -2.087611  -0.869703  -0.646727
   11  SI 1  X    0.471144  -0.529842  -0.000000  -0.000000  -0.000000
   12  SI 1  Y    0.469782   0.531378  -0.000000  -0.000000  -0.000000
   13  SI 1  Z    0.000000   0.000000   1.941926   0.476338  -0.847441
   14  SI 1 XX    0.000000   0.000000  -0.021304  -0.008707   0.058198
   15  SI 1 YY    0.000000   0.000000  -0.021288  -0.008636   0.058190
   16  SI 1 ZZ    0.000000   0.000000   0.042930   0.157776  -0.051417
   17  SI 1 XY    0.000000   0.000000  -0.003175  -0.014122   0.001629
   18  SI 1 XZ    0.020131  -0.020705  -0.000000  -0.000000  -0.000000
   19  SI 1 YZ    0.020072   0.020765  -0.000000  -0.000000  -0.000000
   20  SI 2  S    0.000000   0.000000   0.019956   0.032786   0.021709
   21  SI 2  S    0.000000   0.000000  -0.105394  -0.014175  -0.055474
   22  SI 2  X    0.094601  -0.083539  -0.000000  -0.000000  -0.000000
   23  SI 2  Y    0.094328   0.083781  -0.000000  -0.000000  -0.000000
   24  SI 2  Z    0.000000   0.000000  -0.041155  -0.027956   0.160024
   25  SI 2  S    0.000000   0.000000   0.232348   0.982547   0.478895
   26  SI 2  X   -0.256323   0.204712  -0.000000  -0.000000  -0.000000
   27  SI 2  Y   -0.255582  -0.205305  -0.000000  -0.000000  -0.000000
   28  SI 2  Z    0.000000   0.000000   0.058840   0.218211  -0.722697
   29  SI 2  S    0.000000   0.000000   2.087611  -0.869703  -0.646727
   30  SI 2  X   -0.471144   0.529842  -0.000000  -0.000000  -0.000000
   31  SI 2  Y   -0.469782  -0.531378  -0.000000  -0.000000  -0.000000
   32  SI 2  Z    0.000000   0.000000   1.941926  -0.476338   0.847441
   33  SI 2 XX    0.000000   0.000000   0.021304  -0.008707   0.058198
   34  SI 2 YY    0.000000   0.000000   0.021288  -0.008636   0.058190
   35  SI 2 ZZ    0.000000   0.000000  -0.042930   0.157776  -0.051417
   36  SI 2 XY    0.000000   0.000000   0.003175  -0.014122   0.001629
   37  SI 2 XZ    0.020131  -0.020705  -0.000000  -0.000000  -0.000000
   38  SI 2 YZ    0.020072   0.020765  -0.000000  -0.000000  -0.000000

                     21         22         23         24         25
                    0.3411     0.3600     0.3951     0.4062     0.4191
                     A          A          A          A          A   
    1  SI 1  S    0.000000   0.000000   0.031794  -0.000000  -0.000000
    2  SI 1  S    0.000000   0.000000   0.025915  -0.000000  -0.000000
    3  SI 1  X   -0.124152   0.138014   0.000000   0.147951  -0.154419
    4  SI 1  Y   -0.123793  -0.138415   0.000000   0.147524   0.154867
    5  SI 1  Z    0.000000   0.000000  -0.115136  -0.000000  -0.000000
    6  SI 1  S    0.000000   0.000000   1.107545  -0.000000  -0.000000
    7  SI 1  X    0.590057  -0.626976   0.000000  -0.683399   0.697766
    8  SI 1  Y    0.588351   0.628794   0.000000  -0.681423  -0.699789
    9  SI 1  Z    0.000000   0.000000   0.510785  -0.000000  -0.000000
   10  SI 1  S    0.000000   0.000000  -3.486099  -0.000000  -0.000000
   11  SI 1  X   -0.529966   0.502567   0.000000   0.842474  -0.804384
   12  SI 1  Y   -0.528433  -0.504024   0.000000   0.840037   0.806717
   13  SI 1  Z    0.000000   0.000000   1.188494  -0.000000  -0.000000
   14  SI 1 XX    0.000000   0.000000   0.020039  -0.000000  -0.000000
   15  SI 1 YY    0.000000   0.000000   0.020055  -0.000000  -0.000000
   16  SI 1 ZZ    0.000000   0.000000   0.125573  -0.000000  -0.000000
   17  SI 1 XY    0.000000   0.000000  -0.003292  -0.000000  -0.000000
   18  SI 1 XZ   -0.082619   0.070937   0.000000  -0.011002   0.017463
   19  SI 1 YZ   -0.082380  -0.071142   0.000000  -0.010970  -0.017513
   20  SI 2  S    0.000000   0.000000  -0.031794  -0.000000  -0.000000
   21  SI 2  S    0.000000   0.000000  -0.025915  -0.000000  -0.000000
   22  SI 2  X   -0.124152   0.138014   0.000000  -0.147951   0.154419
   23  SI 2  Y   -0.123793  -0.138415   0.000000  -0.147524  -0.154867
   24  SI 2  Z    0.000000   0.000000  -0.115136  -0.000000  -0.000000
   25  SI 2  S    0.000000   0.000000  -1.107545  -0.000000  -0.000000
   26  SI 2  X    0.590057  -0.626976   0.000000   0.683399  -0.697766
   27  SI 2  Y    0.588351   0.628794   0.000000   0.681423   0.699789
   28  SI 2  Z    0.000000   0.000000   0.510785  -0.000000  -0.000000
   29  SI 2  S    0.000000   0.000000   3.486099  -0.000000  -0.000000
   30  SI 2  X   -0.529966   0.502567   0.000000  -0.842474   0.804384
   31  SI 2  Y   -0.528433  -0.504024   0.000000  -0.840037  -0.806717
   32  SI 2  Z    0.000000   0.000000   1.188494  -0.000000  -0.000000
   33  SI 2 XX    0.000000   0.000000  -0.020039  -0.000000  -0.000000
   34  SI 2 YY    0.000000   0.000000  -0.020055  -0.000000  -0.000000
   35  SI 2 ZZ    0.000000   0.000000  -0.125573  -0.000000  -0.000000
   36  SI 2 XY    0.000000   0.000000   0.003292  -0.000000  -0.000000
   37  SI 2 XZ    0.082619  -0.070937   0.000000  -0.011002   0.017463
   38  SI 2 YZ    0.082380   0.071142   0.000000  -0.010970  -0.017513

                     26         27         28         29         30
                    0.5251     0.6289     0.6420     0.7014     0.7020
                     A          A          A          A          A   
    1  SI 1  S    0.029115  -0.000000   0.000000   0.000000  -0.000123
    2  SI 1  S   -0.002260  -0.000000   0.000000   0.000000   0.004962
    3  SI 1  X   -0.000000   0.045958  -0.038907   0.000000   0.000000
    4  SI 1  Y   -0.000000   0.045825   0.039020   0.000000   0.000000
    5  SI 1  Z    0.204897  -0.000000   0.000000   0.000000   0.001593
    6  SI 1  S    0.946071  -0.000000   0.000000   0.000000   0.016016
    7  SI 1  X   -0.000000  -0.192633   0.164426   0.000000   0.000000
    8  SI 1  Y   -0.000000  -0.192076  -0.164902   0.000000   0.000000
    9  SI 1  Z   -0.916622  -0.000000   0.000000   0.000000  -0.014566
   10  SI 1  S   -3.458875  -0.000000   0.000000   0.000000  -0.025056
   11  SI 1  X   -0.000000   0.073625  -0.061556   0.000000   0.000000
   12  SI 1  Y   -0.000000   0.073412   0.061735   0.000000   0.000000
   13  SI 1  Z    2.165441  -0.000000   0.000000   0.000000   0.024434
   14  SI 1 XX    0.126428  -0.000000   0.000000  -0.601838   0.012545
   15  SI 1 YY    0.126404  -0.000000   0.000000   0.601838   0.009062
   16  SI 1 ZZ   -0.169302  -0.000000   0.000000   0.000000  -0.014002
   17  SI 1 XY    0.004977  -0.000000   0.000000   0.002012   0.694341
   18  SI 1 XZ   -0.000000  -0.450950   0.453128   0.000000   0.000000
   19  SI 1 YZ   -0.000000  -0.449646  -0.454442   0.000000   0.000000
   20  SI 2  S   -0.029115  -0.000000   0.000000   0.000000  -0.000123
   21  SI 2  S    0.002260  -0.000000   0.000000   0.000000   0.004962
   22  SI 2  X   -0.000000   0.045958  -0.038907   0.000000   0.000000
   23  SI 2  Y   -0.000000   0.045825   0.039020   0.000000   0.000000
   24  SI 2  Z    0.204897  -0.000000   0.000000   0.000000  -0.001593
   25  SI 2  S   -0.946071  -0.000000   0.000000   0.000000   0.016016
   26  SI 2  X   -0.000000  -0.192633   0.164426   0.000000   0.000000
   27  SI 2  Y   -0.000000  -0.192076  -0.164902   0.000000   0.000000
   28  SI 2  Z   -0.916622  -0.000000   0.000000   0.000000   0.014566
   29  SI 2  S    3.458875  -0.000000   0.000000   0.000000  -0.025056
   30  SI 2  X   -0.000000   0.073625  -0.061556   0.000000   0.000000
   31  SI 2  Y   -0.000000   0.073412   0.061735   0.000000   0.000000
   32  SI 2  Z    2.165441  -0.000000   0.000000   0.000000  -0.024434
   33  SI 2 XX   -0.126428  -0.000000   0.000000  -0.601838   0.012545
   34  SI 2 YY   -0.126404  -0.000000   0.000000   0.601838   0.009062
   35  SI 2 ZZ    0.169302  -0.000000   0.000000   0.000000  -0.014002
   36  SI 2 XY   -0.004977  -0.000000   0.000000   0.002012   0.694341
   37  SI 2 XZ   -0.000000   0.450950  -0.453128   0.000000   0.000000
   38  SI 2 YZ   -0.000000   0.449646   0.454442   0.000000   0.000000

                     31         32         33         34         35
                    0.7869     0.7870     0.8162     0.9763     0.9771
                     A          A          A          A          A   
    1  SI 1  S    0.000000   0.000594  -0.010822   0.000000  -0.000000
    2  SI 1  S    0.000000  -0.002822  -0.001264   0.000000  -0.000000
    3  SI 1  X    0.000000   0.000000  -0.000000  -0.020116   0.018511
    4  SI 1  Y    0.000000   0.000000  -0.000000   0.020174   0.018458
    5  SI 1  Z    0.000000   0.001674  -0.066671   0.000000  -0.000000
    6  SI 1  S    0.000000   0.005717  -0.345802   0.000000  -0.000000
    7  SI 1  X    0.000000   0.000000  -0.000000   0.067372  -0.060847
    8  SI 1  Y    0.000000   0.000000  -0.000000  -0.067568  -0.060671
    9  SI 1  Z    0.000000  -0.008093   0.404797   0.000000  -0.000000
   10  SI 1  S    0.000000   0.005779   0.209575   0.000000  -0.000000
   11  SI 1  X    0.000000   0.000000  -0.000000   0.120555  -0.126640
   12  SI 1  Y    0.000000   0.000000  -0.000000  -0.120905  -0.126274
   13  SI 1  Z    0.000000   0.000850  -0.439741   0.000000  -0.000000
   14  SI 1 XX    0.623474   0.000280  -0.366796   0.000000  -0.000000
   15  SI 1 YY   -0.623474   0.003890  -0.366893   0.000000  -0.000000
   16  SI 1 ZZ    0.000000  -0.000868   0.625578   0.000000  -0.000000
   17  SI 1 XY   -0.002085  -0.719849   0.019448   0.000000  -0.000000
   18  SI 1 XZ    0.000000   0.000000  -0.000000  -0.571298   0.573139
   19  SI 1 YZ    0.000000   0.000000  -0.000000   0.572955   0.571482
   20  SI 2  S    0.000000  -0.000594  -0.010822   0.000000  -0.000000
   21  SI 2  S    0.000000   0.002822  -0.001264   0.000000  -0.000000
   22  SI 2  X    0.000000   0.000000  -0.000000   0.020116  -0.018511
   23  SI 2  Y    0.000000   0.000000  -0.000000  -0.020174  -0.018458
   24  SI 2  Z    0.000000   0.001674   0.066671   0.000000  -0.000000
   25  SI 2  S    0.000000  -0.005717  -0.345802   0.000000  -0.000000
   26  SI 2  X    0.000000   0.000000  -0.000000  -0.067372   0.060847
   27  SI 2  Y    0.000000   0.000000  -0.000000   0.067568   0.060671
   28  SI 2  Z    0.000000  -0.008093  -0.404797   0.000000  -0.000000
   29  SI 2  S    0.000000  -0.005779   0.209575   0.000000  -0.000000
   30  SI 2  X    0.000000   0.000000  -0.000000  -0.120555   0.126640
   31  SI 2  Y    0.000000   0.000000  -0.000000   0.120905   0.126274
   32  SI 2  Z    0.000000   0.000850   0.439741   0.000000  -0.000000
   33  SI 2 XX   -0.623474  -0.000280  -0.366796   0.000000  -0.000000
   34  SI 2 YY    0.623474  -0.003890  -0.366893   0.000000  -0.000000
   35  SI 2 ZZ    0.000000   0.000868   0.625578   0.000000  -0.000000
   36  SI 2 XY    0.002085   0.719849   0.019448   0.000000  -0.000000
   37  SI 2 XZ    0.000000   0.000000  -0.000000  -0.571298   0.573139
   38  SI 2 YZ    0.000000   0.000000  -0.000000   0.572955   0.571482

                     36         37         38
                    1.2827     2.5704     2.6529
                     A          A          A   
    1  SI 1  S   -0.017977   0.102543   0.099613
    2  SI 1  S    0.110084  -0.485922  -0.458002
    3  SI 1  X   -0.000000   0.000000  -0.000000
    4  SI 1  Y   -0.000000   0.000000  -0.000000
    5  SI 1  Z   -0.155740   0.011196  -0.049952
    6  SI 1  S   -0.259152   4.141543   4.287122
    7  SI 1  X   -0.000000   0.000000  -0.000000
    8  SI 1  Y   -0.000000   0.000000  -0.000000
    9  SI 1  Z    0.841221  -0.012551   0.235090
   10  SI 1  S   -1.349980  -0.189494  -0.035002
   11  SI 1  X   -0.000000   0.000000  -0.000000
   12  SI 1  Y   -0.000000   0.000000  -0.000000
   13  SI 1  Z    0.614493  -0.004278  -0.144930
   14  SI 1 XX    0.531765  -1.797576  -1.774812
   15  SI 1 YY    0.531766  -1.797577  -1.774810
   16  SI 1 ZZ   -0.971068  -1.704147  -2.086214
   17  SI 1 XY   -0.000034   0.000227  -0.000461
   18  SI 1 XZ   -0.000000   0.000000  -0.000000
   19  SI 1 YZ   -0.000000   0.000000  -0.000000
   20  SI 2  S    0.017977   0.102543  -0.099613
   21  SI 2  S   -0.110084  -0.485922   0.458002
   22  SI 2  X   -0.000000   0.000000  -0.000000
   23  SI 2  Y   -0.000000   0.000000  -0.000000
   24  SI 2  Z   -0.155740  -0.011196  -0.049952
   25  SI 2  S    0.259152   4.141543  -4.287122
   26  SI 2  X   -0.000000   0.000000  -0.000000
   27  SI 2  Y   -0.000000   0.000000  -0.000000
   28  SI 2  Z    0.841221   0.012551   0.235090
   29  SI 2  S    1.349980  -0.189494   0.035002
   30  SI 2  X   -0.000000   0.000000  -0.000000
   31  SI 2  Y   -0.000000   0.000000  -0.000000
   32  SI 2  Z    0.614493   0.004278  -0.144930
   33  SI 2 XX   -0.531765  -1.797576   1.774812
   34  SI 2 YY   -0.531766  -1.797577   1.774810
   35  SI 2 ZZ    0.971068  -1.704147   2.086214
   36  SI 2 XY    0.000034   0.000227   0.000461
   37  SI 2 XZ   -0.000000   0.000000  -0.000000
   38  SI 2 YZ   -0.000000   0.000000  -0.000000
 ...... END OF UHF CALCULATION ......
 STEP CPU TIME =     0.01 TOTAL CPU TIME =          0.0 (      0.0 MIN)
 TOTAL WALL CLOCK TIME=          0.0 SECONDS, CPU UTILIZATION IS    97.94%

     ----------------------------------------------------------------
     PROPERTY VALUES FOR THE UHF   SELF-CONSISTENT FIELD WAVEFUNCTION
     ----------------------------------------------------------------

          -----------------
          ENERGY COMPONENTS
          -----------------

         WAVEFUNCTION NORMALIZATION =       1.0000000000

                ONE ELECTRON ENERGY =    -896.1242326743
                TWO ELECTRON ENERGY =     270.7866169840
           NUCLEAR REPULSION ENERGY =      47.6344968452
                                      ------------------
                       TOTAL ENERGY =    -577.7031188451

 ELECTRON-ELECTRON POTENTIAL ENERGY =     270.7866169840
  NUCLEUS-ELECTRON POTENTIAL ENERGY =   -1473.5702470860
   NUCLEUS-NUCLEUS POTENTIAL ENERGY =      47.6344968452
                                      ------------------
             TOTAL POTENTIAL ENERGY =   -1155.1491332569
               TOTAL KINETIC ENERGY =     577.4460144118
                 VIRIAL RATIO (V/T) =       2.0004452441

  ...... PI ENERGY ANALYSIS ......

 ENERGY ANALYSIS:
            FOCK ENERGY=   -354.5509981558
          BARE H ENERGY=   -896.1242326743
     ELECTRONIC ENERGY =   -625.3376154150
         KINETIC ENERGY=    577.4460144118
          N-N REPULSION=     47.6344968452
           TOTAL ENERGY=   -577.7031185699
        SIGMA PART(1+2)=   -492.0876197322
               (K,V1,2)=    477.3614629993  -1141.9505188844    172.5014361529
           PI PART(1+2)=   -133.2499956828
               (K,V1,2)=    100.0845514124   -331.6197282017     98.2851811064
  SIGMA SKELETON, ERROR=   -444.4531228870     -0.0000000000
             MIXED PART= 0.00000E+00 0.00000E+00 0.00000E+00 0.00000E+00
 ...... END OF PI ENERGY ANALYSIS ......

          ---------------------------------------
          MULLIKEN AND LOWDIN POPULATION ANALYSES
          ---------------------------------------

     ATOMIC MULLIKEN POPULATION IN EACH MOLECULAR ORBITAL
        ALPHA ORBITALS

                      1          2          3          4          5

                  1.000000   1.000000   1.000000   1.000000   1.000000

    1             0.500000   0.500000   0.500000   0.500000   0.500000
    2             0.500000   0.500000   0.500000   0.500000   0.500000

                      6          7          8          9         10

                  1.000000   1.000000   1.000000   1.000000   1.000000

    1             0.500000   0.500000   0.500000   0.500000   0.500000
    2             0.500000   0.500000   0.500000   0.500000   0.500000

                     11         12         13         14         15

                  1.000000   1.000000   1.000000   1.000000   1.000000

    1             0.500000   0.500000   0.500000   0.500000   0.500000
    2             0.500000   0.500000   0.500000   0.500000   0.500000

     ATOMIC MULLIKEN POPULATION IN EACH MOLECULAR ORBITAL
         BETA ORBITALS

                      1          2          3          4          5

                  1.000000   1.000000   1.000000   1.000000   1.000000

    1             0.500000   0.500000   0.500000   0.500000   0.500000
    2             0.500000   0.500000   0.500000   0.500000   0.500000

                      6          7          8          9         10

                  1.000000   1.000000   1.000000   1.000000   1.000000

    1             0.500000   0.500000   0.500000   0.500000   0.500000
    2             0.500000   0.500000   0.500000   0.500000   0.500000

                     11         12         13

                  1.000000   1.000000   1.000000

    1             0.500000   0.500000   0.500000
    2             0.500000   0.500000   0.500000

     ATOMIC SPIN POPULATION (ALPHA MINUS BETA)
       ATOM         MULL.POP.                    LOW.POP.
    1 SI            1.000000                     1.000000
    2 SI            1.000000                     1.000000


          ********* ALL ELECTRONS ********

               ----- POPULATIONS IN EACH AO -----
                             MULLIKEN      LOWDIN
              1  SI 1  S      1.99919     1.99898
              2  SI 1  S      2.00177     1.98718
              3  SI 1  X      1.99198     1.96224
              4  SI 1  Y      1.99198     1.96221
              5  SI 1  Z      1.99229     1.96421
              6  SI 1  S      1.28984     0.58859
              7  SI 1  X      0.44135     0.42212
              8  SI 1  Y      0.44057     0.42143
              9  SI 1  Z      0.53901     0.50628
             10  SI 1  S      0.54617     0.43637
             11  SI 1  X      0.30186     0.34988
             12  SI 1  Y      0.30122     0.34917
             13  SI 1  Z      0.09852     0.29709
             14  SI 1 XX     -0.00255     0.22748
             15  SI 1 YY     -0.00255     0.22748
             16  SI 1 ZZ      0.03770     0.26573
             17  SI 1 XY      0.00061     0.00061
             18  SI 1 XZ      0.01553     0.01649
             19  SI 1 YZ      0.01551     0.01646
             20  SI 2  S      1.99919     1.99898
             21  SI 2  S      2.00177     1.98718
             22  SI 2  X      1.99198     1.96224
             23  SI 2  Y      1.99198     1.96221
             24  SI 2  Z      1.99229     1.96421
             25  SI 2  S      1.28984     0.58859
             26  SI 2  X      0.44135     0.42212
             27  SI 2  Y      0.44057     0.42143
             28  SI 2  Z      0.53901     0.50628
             29  SI 2  S      0.54617     0.43637
             30  SI 2  X      0.30186     0.34988
             31  SI 2  Y      0.30122     0.34917
             32  SI 2  Z      0.09852     0.29709
             33  SI 2 XX     -0.00255     0.22748
             34  SI 2 YY     -0.00255     0.22748
             35  SI 2 ZZ      0.03770     0.26573
             36  SI 2 XY      0.00061     0.00061
             37  SI 2 XZ      0.01553     0.01649
             38  SI 2 YZ      0.01551     0.01646

          ----- MULLIKEN ATOMIC OVERLAP POPULATIONS -----
          (OFF-DIAGONAL ELEMENTS NEED TO BE MULTIPLIED BY 2)

             1           2

    1   13.5840709
    2    0.4159291  13.5840709

          TOTAL MULLIKEN AND LOWDIN ATOMIC POPULATIONS
       ATOM         MULL.POP.    CHARGE          LOW.POP.     CHARGE
    1 SI           14.000000    0.000000        14.000000   -0.000000
    2 SI           14.000000   -0.000000        14.000000   -0.000000

          -------------------------------
          BOND ORDER AND VALENCE ANALYSIS     BOND ORDER THRESHOLD=0.050
          -------------------------------

                   BOND                       BOND                       BOND
  ATOM PAIR DIST  ORDER      ATOM PAIR DIST  ORDER      ATOM PAIR DIST  ORDER
    1   2  2.177  2.144

                       TOTAL       BONDED        FREE
      ATOM            VALENCE     VALENCE     VALENCE
    1 SI                2.732       2.144       0.588
    2 SI                2.732       2.144       0.588

          -----------------------------------------
          ATOMIC SPIN DENSITY AT THE NUCLEUS (A.U.)
          -----------------------------------------
                            SPIN DENS    ALPHA DENS     BETA DENS
    1  SI          14.0    -0.1683979     827.23881     827.40721
    2  SI          14.0    -0.1683979     827.23881     827.40721

          ---------------------
          ELECTROSTATIC MOMENTS
          ---------------------

 POINT   1           X           Y           Z (BOHR)    CHARGE
                 0.000000    0.000000    0.000000       -0.00 (A.U.)
         DX          DY          DZ         /D/  (DEBYE)
     0.000000    0.000000   -0.000000    0.000000
 ...... END OF PROPERTY EVALUATION ......
 STEP CPU TIME =     0.00 TOTAL CPU TIME =          0.0 (      0.0 MIN)
 TOTAL WALL CLOCK TIME=          0.0 SECONDS, CPU UTILIZATION IS    98.04%

 BEGINNING ONE ELECTRON GRADIENT...
 ..... END OF 1-ELECTRON GRADIENT ......
 STEP CPU TIME =     0.00 TOTAL CPU TIME =          0.0 (      0.0 MIN)
 TOTAL WALL CLOCK TIME=          0.0 SECONDS, CPU UTILIZATION IS    98.11%

          ----------------------
          GRADIENT OF THE ENERGY
          ----------------------

 THE MINIMUM MEMORY REQUIRED FOR THIS RUN IS      79013 WORDS.
 USING     993563 WORDS FOR 2E- DERIVATIVE INTEGRAL CONTRIBUTIONS.
 THE COARSE/FINE SCHWARZ SCREENINGS SKIPPED            0/           0 BLOCKS.
 THE NUMBER OF GRADIENT INTEGRAL BLOCKS COMPUTED WAS      1270
 ...... END OF 2-ELECTRON GRADIENT ......
 STEP CPU TIME =     0.05 TOTAL CPU TIME =          0.1 (      0.0 MIN)
 TOTAL WALL CLOCK TIME=          0.1 SECONDS, CPU UTILIZATION IS    99.23%

          NSERCH=  0     ENERGY=    -577.7031188

                                 -----------------------
                                 GRADIENT (HARTREE/BOHR)
                                 -----------------------
        ATOM     ZNUC       DE/DX         DE/DY         DE/DZ
 --------------------------------------------------------------
    1  SI          14.0     0.0000000     0.0000000     0.0105865
    2  SI          14.0     0.0000000     0.0000000    -0.0105865

          MAXIMUM GRADIENT = 0.0105865    RMS GRADIENT = 0.0061121

 NSERCH:   0  E=     -577.7031188451  GRAD. MAX=  0.0105865  R.M.S.=  0.0061121

          FORCE CONSTANT MATRIX NOT UPDATED --- TAKING FIRST STEP
          MIN SEARCH, CORRECT HESSIAN, TRYING PURE NR STEP
               NR STEP HAS LENGTH         =   0.015154
          RADIUS OF STEP TAKEN=   0.01515  CURRENT TRUST RADIUS=   0.30000

 BEGINNING GEOMETRY SEARCH POINT NSERCH=   1 ...

 COORDINATES OF ALL ATOMS ARE (ANGS)
   ATOM   CHARGE       X              Y              Z
 ------------------------------------------------------------
 SI         14.0   0.0000000000   0.0000000000   1.0830232196
 SI         14.0   0.0000000000   0.0000000000  -1.0830232196

          INTERNUCLEAR DISTANCES (ANGS.)
          ------------------------------

                1 SI         2 SI    

   1 SI      0.0000000    2.1660464 *
   2 SI      2.1660464 *  0.0000000  

  * ... LESS THAN  3.000

 ...... END OF ONE-ELECTRON INTEGRALS ......
 STEP CPU TIME =     0.00 TOTAL CPU TIME =          0.1 (      0.0 MIN)
 TOTAL WALL CLOCK TIME=          0.1 SECONDS, CPU UTILIZATION IS    99.23%
 TOTAL NUMBER OF NONZERO TWO-ELECTRON INTEGRALS =               69971
          5 INTEGRAL RECORDS WERE STORED ON DISK FILE  8.
  ...... END OF TWO-ELECTRON INTEGRALS .....
 STEP CPU TIME =     0.01 TOTAL CPU TIME =          0.1 (      0.0 MIN)
 TOTAL WALL CLOCK TIME=          0.1 SECONDS, CPU UTILIZATION IS    99.22%

          ---------------------------
                  UHF SCF CALCULATION
          ---------------------------
     DENSITY MATRIX CONV=  5.00E-05

[...]
    8  SI 1  Y    0.009295  -0.009655   0.010253   0.000000   0.000000
    9  SI 1  Z    0.000000   0.000000   0.000000  -0.013618   0.015751
   10  SI 1  S    0.000000   0.000000   0.000000   0.000935   0.002104
   11  SI 1  X   -0.002879  -0.002333   0.003370   0.000000   0.000000
   12  SI 1  Y   -0.002871   0.002340  -0.003380   0.000000   0.000000
   13  SI 1  Z    0.000000   0.000000   0.000000   0.003845  -0.004481
   14  SI 1 XX    0.000000   0.000000   0.000000   0.000250  -0.000115
   15  SI 1 YY    0.000000   0.000000   0.000000   0.000249  -0.000115
   16  SI 1 ZZ    0.000000   0.000000   0.000000   0.001200  -0.001752
   17  SI 1 XY    0.000000   0.000000   0.000000   0.000130  -0.000024
   18  SI 1 XZ   -0.000236   0.000096   0.000301   0.000000   0.000000
   19  SI 1 YZ   -0.000235  -0.000096  -0.000302   0.000000   0.000000
   20  SI 2  S    0.000000   0.000000   0.000000   0.000406   0.000250
   21  SI 2  S    0.000000   0.000000   0.000000  -0.001758  -0.000782
   22  SI 2  X   -0.498339   0.496713   0.496666   0.000000   0.000000
   23  SI 2  Y   -0.496898  -0.498154  -0.498106   0.000000   0.000000
   24  SI 2  Z    0.000000   0.000000   0.000000   0.703012   0.703611
   25  SI 2  S    0.000000   0.000000   0.000000  -0.001355   0.000110
   26  SI 2  X   -0.009322   0.009627   0.010223   0.000000   0.000000
   27  SI 2  Y   -0.009295  -0.009655  -0.010253   0.000000   0.000000
   28  SI 2  Z    0.000000   0.000000   0.000000   0.013618   0.015751
   29  SI 2  S    0.000000   0.000000   0.000000   0.000935  -0.002104
   30  SI 2  X    0.002879  -0.002333  -0.003370   0.000000   0.000000
   31  SI 2  Y    0.002871   0.002340   0.003380   0.000000   0.000000
   32  SI 2  Z    0.000000   0.000000   0.000000  -0.003845  -0.004481
   33  SI 2 XX    0.000000   0.000000   0.000000   0.000250   0.000115
   34  SI 2 YY    0.000000   0.000000   0.000000   0.000249   0.000115
   35  SI 2 ZZ    0.000000   0.000000   0.000000   0.001200   0.001752
   36  SI 2 XY    0.000000   0.000000   0.000000   0.000130   0.000024
   37  SI 2 XZ   -0.000236  -0.000096   0.000301   0.000000   0.000000
   38  SI 2 YZ   -0.000235   0.000096  -0.000302   0.000000   0.000000

                     11         12         13         14         15
                   -0.6343    -0.4031    -0.2708    -0.0201    -0.0146
                     A          A          A          A          A   
    1  SI 1  S    0.045136   0.045771   0.000000  -0.004710   0.000000
    2  SI 1  S   -0.219538  -0.222880   0.000000   0.032670   0.000000
    3  SI 1  X    0.000000   0.000000   0.104668   0.000000  -0.088944
    4  SI 1  Y    0.000000   0.000000   0.104365   0.000000   0.089202
    5  SI 1  Z    0.051941  -0.043633   0.000000   0.155182   0.000000
    6  SI 1  S    0.486404   0.530987   0.000000  -0.019353   0.000000
    7  SI 1  X    0.000000   0.000000  -0.292785   0.000000   0.218227
    8  SI 1  Y    0.000000   0.000000  -0.291938   0.000000  -0.218860
    9  SI 1  Z   -0.107967   0.097037   0.000000  -0.387521   0.000000
   10  SI 1  S    0.148346   0.407335   0.000000  -0.329052   0.000000
   11  SI 1  X    0.000000   0.000000  -0.185725   0.000000   0.250360
   12  SI 1  Y    0.000000   0.000000  -0.185188   0.000000  -0.251086
   13  SI 1  Z   -0.000416  -0.016697   0.000000  -0.330026   0.000000
   14  SI 1 XX   -0.010778   0.009062   0.000000  -0.013088   0.000000
   15  SI 1 YY   -0.010859   0.009023   0.000000  -0.013092   0.000000
   16  SI 1 ZZ    0.015265  -0.028942   0.000000   0.030048   0.000000
   17  SI 1 XY    0.016169   0.007897   0.000000   0.000908   0.000000
   18  SI 1 XZ    0.000000   0.000000   0.043932   0.000000  -0.021544
   19  SI 1 YZ    0.000000   0.000000   0.043805   0.000000   0.021606
   20  SI 2  S    0.045136  -0.045771   0.000000  -0.004710   0.000000
   21  SI 2  S   -0.219538   0.222880   0.000000   0.032670   0.000000
   22  SI 2  X    0.000000   0.000000   0.104668   0.000000  -0.088944
   23  SI 2  Y    0.000000   0.000000   0.104365   0.000000   0.089202
   24  SI 2  Z   -0.051941  -0.043633   0.000000  -0.155182   0.000000
   25  SI 2  S    0.486404  -0.530987   0.000000  -0.019353   0.000000
   26  SI 2  X    0.000000   0.000000  -0.292785   0.000000   0.218227
   27  SI 2  Y    0.000000   0.000000  -0.291938   0.000000  -0.218860
   28  SI 2  Z    0.107967   0.097037   0.000000   0.387521   0.000000
   29  SI 2  S    0.148346  -0.407335   0.000000  -0.329052   0.000000
   30  SI 2  X    0.000000   0.000000  -0.185725   0.000000   0.250360
   31  SI 2  Y    0.000000   0.000000  -0.185188   0.000000  -0.251086
   32  SI 2  Z    0.000416  -0.016697   0.000000   0.330026   0.000000
   33  SI 2 XX   -0.010778  -0.009062   0.000000  -0.013088   0.000000
   34  SI 2 YY   -0.010859  -0.009023   0.000000  -0.013092   0.000000
   35  SI 2 ZZ    0.015265   0.028942   0.000000   0.030048   0.000000
   36  SI 2 XY    0.016169  -0.007897   0.000000   0.000908   0.000000
   37  SI 2 XZ    0.000000   0.000000  -0.043932   0.000000   0.021544
   38  SI 2 YZ    0.000000   0.000000  -0.043805   0.000000  -0.021606

                     16         17         18         19         20
                    0.0503     0.0888     0.1714     0.2622     0.3205
                     A          A          A          A          A   
    1  SI 1  S    0.000000   0.000000  -0.020023  -0.032166  -0.022467
    2  SI 1  S    0.000000   0.000000   0.106365   0.012188   0.055252
    3  SI 1  X    0.093965   0.082880   0.000000   0.000000   0.000000
    4  SI 1  Y    0.093693  -0.083120   0.000000   0.000000   0.000000
    5  SI 1  Z    0.000000   0.000000  -0.037729  -0.030820   0.160183
    6  SI 1  S    0.000000   0.000000  -0.230964  -0.971716  -0.502482
    7  SI 1  X   -0.254373  -0.202652   0.000000   0.000000   0.000000
    8  SI 1  Y   -0.253637   0.203239   0.000000   0.000000   0.000000
    9  SI 1  Z    0.000000   0.000000   0.049319   0.227572  -0.715446
   10  SI 1  S    0.000000   0.000000  -2.225347   0.848077   0.669040
   11  SI 1  X   -0.480065  -0.538971   0.000000   0.000000   0.000000
   12  SI 1  Y   -0.478676   0.540534   0.000000   0.000000   0.000000
   13  SI 1  Z    0.000000   0.000000   2.002161  -0.505605   0.839377
   14  SI 1 XX    0.000000   0.000000  -0.021243   0.010203  -0.057451
   15  SI 1 YY    0.000000   0.000000  -0.021227   0.010131  -0.057445
   16  SI 1 ZZ    0.000000   0.000000   0.043614  -0.153852   0.042588
   17  SI 1 XY    0.000000   0.000000  -0.003148   0.014256  -0.001122
   18  SI 1 XZ   -0.020663  -0.021197   0.000000   0.000000   0.000000
   19  SI 1 YZ   -0.020604   0.021258   0.000000   0.000000   0.000000
   20  SI 2  S    0.000000   0.000000   0.020023  -0.032166  -0.022467
   21  SI 2  S    0.000000   0.000000  -0.106365   0.012188   0.055252
   22  SI 2  X   -0.093965  -0.082880   0.000000   0.000000   0.000000
   23  SI 2  Y   -0.093693   0.083120   0.000000   0.000000   0.000000
   24  SI 2  Z    0.000000   0.000000  -0.037729   0.030820  -0.160183
   25  SI 2  S    0.000000   0.000000   0.230964  -0.971716  -0.502482
   26  SI 2  X    0.254373   0.202652   0.000000   0.000000   0.000000
   27  SI 2  Y    0.253637  -0.203239   0.000000   0.000000   0.000000
   28  SI 2  Z    0.000000   0.000000   0.049319  -0.227572   0.715446
   29  SI 2  S    0.000000   0.000000   2.225347   0.848077   0.669040
   30  SI 2  X    0.480065   0.538971   0.000000   0.000000   0.000000
   31  SI 2  Y    0.478676  -0.540534   0.000000   0.000000   0.000000
   32  SI 2  Z    0.000000   0.000000   2.002161   0.505605  -0.839377
   33  SI 2 XX    0.000000   0.000000   0.021243   0.010203  -0.057451
   34  SI 2 YY    0.000000   0.000000   0.021227   0.010131  -0.057445
   35  SI 2 ZZ    0.000000   0.000000  -0.043614  -0.153852   0.042588
   36  SI 2 XY    0.000000   0.000000   0.003148   0.014256  -0.001122
   37  SI 2 XZ   -0.020663  -0.021197   0.000000   0.000000   0.000000
   38  SI 2 YZ   -0.020604   0.021258   0.000000   0.000000   0.000000

                     21         22         23         24         25
                    0.3387     0.3580     0.3974     0.4083     0.4213
                     A          A          A          A          A   
    1  SI 1  S    0.000000   0.000000  -0.031897   0.000000   0.000000
    2  SI 1  S    0.000000   0.000000  -0.026639   0.000000   0.000000
    3  SI 1  X   -0.122831   0.137111   0.000000  -0.148505  -0.154899
    4  SI 1  Y   -0.122476  -0.137509   0.000000  -0.148076   0.155348
    5  SI 1  Z    0.000000   0.000000   0.113731   0.000000   0.000000
    6  SI 1  S    0.000000   0.000000  -1.113300   0.000000   0.000000
    7  SI 1  X    0.584548  -0.622764   0.000000   0.685738   0.699813
    8  SI 1  Y    0.582858   0.624570   0.000000   0.683755  -0.701842
    9  SI 1  Z    0.000000   0.000000  -0.508640   0.000000   0.000000
   10  SI 1  S    0.000000   0.000000   3.649137   0.000000   0.000000
   11  SI 1  X   -0.528762   0.501415   0.000000  -0.847796  -0.809092
   12  SI 1  Y   -0.527233  -0.502869   0.000000  -0.845345   0.811439
   13  SI 1  Z    0.000000   0.000000  -1.263211   0.000000   0.000000
   14  SI 1 XX    0.000000   0.000000  -0.021111   0.000000   0.000000
   15  SI 1 YY    0.000000   0.000000  -0.021127   0.000000   0.000000
   16  SI 1 ZZ    0.000000   0.000000  -0.125463   0.000000   0.000000
   17  SI 1 XY    0.000000   0.000000   0.003155   0.000000   0.000000
   18  SI 1 XZ   -0.085847   0.074099   0.000000   0.013526   0.020133
   19  SI 1 YZ   -0.085599  -0.074314   0.000000   0.013487  -0.020192
   20  SI 2  S    0.000000   0.000000   0.031897   0.000000   0.000000
   21  SI 2  S    0.000000   0.000000   0.026639   0.000000   0.000000
   22  SI 2  X   -0.122831   0.137111   0.000000   0.148505   0.154899
   23  SI 2  Y   -0.122476  -0.137509   0.000000   0.148076  -0.155348
   24  SI 2  Z    0.000000   0.000000   0.113731   0.000000   0.000000
   25  SI 2  S    0.000000   0.000000   1.113300   0.000000   0.000000
   26  SI 2  X    0.584548  -0.622764   0.000000  -0.685738  -0.699813
   27  SI 2  Y    0.582858   0.624570   0.000000  -0.683755   0.701842
   28  SI 2  Z    0.000000   0.000000  -0.508640   0.000000   0.000000
   29  SI 2  S    0.000000   0.000000  -3.649137   0.000000   0.000000
   30  SI 2  X   -0.528762   0.501415   0.000000   0.847796   0.809092
   31  SI 2  Y   -0.527233  -0.502869   0.000000   0.845345  -0.811439
   32  SI 2  Z    0.000000   0.000000  -1.263211   0.000000   0.000000
   33  SI 2 XX    0.000000   0.000000   0.021111   0.000000   0.000000
   34  SI 2 YY    0.000000   0.000000   0.021127   0.000000   0.000000
   35  SI 2 ZZ    0.000000   0.000000   0.125463   0.000000   0.000000
   36  SI 2 XY    0.000000   0.000000  -0.003155   0.000000   0.000000
   37  SI 2 XZ    0.085847  -0.074099   0.000000   0.013526   0.020133
   38  SI 2 YZ    0.085599   0.074314   0.000000   0.013487  -0.020192

     ----------------------------------------------------------------
     PROPERTY VALUES FOR THE UHF   SELF-CONSISTENT FIELD WAVEFUNCTION
     ----------------------------------------------------------------

          -----------------
          ENERGY COMPONENTS
          -----------------

         WAVEFUNCTION NORMALIZATION =       1.0000000000

                ONE ELECTRON ENERGY =    -897.5753093947
                TWO ELECTRON ENERGY =     271.5283146634
           NUCLEAR REPULSION ENERGY =      48.3435491083
                                      ------------------
                       TOTAL ENERGY =    -577.7034456230

 ELECTRON-ELECTRON POTENTIAL ENERGY =     271.5283146634
  NUCLEUS-ELECTRON POTENTIAL ENERGY =   -1475.0684238089
   NUCLEUS-NUCLEUS POTENTIAL ENERGY =      48.3435491083
                                      ------------------
             TOTAL POTENTIAL ENERGY =   -1155.1965600372
               TOTAL KINETIC ENERGY =     577.4931144142
                 VIRIAL RATIO (V/T) =       2.0003642142

  ...... PI ENERGY ANALYSIS ......

 ENERGY ANALYSIS:
            FOCK ENERGY=   -354.5186760207
          BARE H ENERGY=   -897.5753093947
     ELECTRONIC ENERGY =   -626.0469927077
         KINETIC ENERGY=    577.4931144142
          N-N REPULSION=     48.3435491083
           TOTAL ENERGY=   -577.7034435994
        SIGMA PART(1+2)=   -492.4963699655
               (K,V1,2)=    477.3860878430  -1142.8173336373    172.9348758288
           PI PART(1+2)=   -133.5506227422
               (K,V1,2)=    100.1070265712   -332.2510901716     98.5934408582
  SIGMA SKELETON, ERROR=   -444.1528208572      0.0000000000
             MIXED PART= 0.00000E+00 0.00000E+00 0.00000E+00 0.00000E+00
 ...... END OF PI ENERGY ANALYSIS ......

          ---------------------------------------
          MULLIKEN AND LOWDIN POPULATION ANALYSES
          ---------------------------------------

     ATOMIC MULLIKEN POPULATION IN EACH MOLECULAR ORBITAL
        ALPHA ORBITALS

                      1          2          3          4          5

                  1.000000   1.000000   1.000000   1.000000   1.000000

    1             0.500000   0.500000   0.500000   0.500000   0.500000
    2             0.500000   0.500000   0.500000   0.500000   0.500000

                      6          7          8          9         10

                  1.000000   1.000000   1.000000   1.000000   1.000000

    1             0.500000   0.500000   0.500000   0.500000   0.500000
    2             0.500000   0.500000   0.500000   0.500000   0.500000

                     11         12         13         14         15

                  1.000000   1.000000   1.000000   1.000000   1.000000

    1             0.500000   0.500000   0.500000   0.500000   0.500000
    2             0.500000   0.500000   0.500000   0.500000   0.500000

     ATOMIC MULLIKEN POPULATION IN EACH MOLECULAR ORBITAL
         BETA ORBITALS

                      1          2          3          4          5

                  1.000000   1.000000   1.000000   1.000000   1.000000

    1             0.500000   0.500000   0.500000   0.500000   0.500000
    2             0.500000   0.500000   0.500000   0.500000   0.500000

                      6          7          8          9         10

                  1.000000   1.000000   1.000000   1.000000   1.000000

    1             0.500000   0.500000   0.500000   0.500000   0.500000
    2             0.500000   0.500000   0.500000   0.500000   0.500000

                     11         12         13

                  1.000000   1.000000   1.000000

    1             0.500000   0.500000   0.500000
    2             0.500000   0.500000   0.500000

     ATOMIC SPIN POPULATION (ALPHA MINUS BETA)
       ATOM         MULL.POP.                    LOW.POP.
    1 SI            1.000000                     1.000000
    2 SI            1.000000                     1.000000


          ********* ALL ELECTRONS ********

               ----- POPULATIONS IN EACH AO -----
                             MULLIKEN      LOWDIN
              1  SI 1  S      1.99919     1.99897
              2  SI 1  S      2.00174     1.98722
              3  SI 1  X      1.99198     1.96232
              4  SI 1  Y      1.99198     1.96229
              5  SI 1  Z      1.99233     1.96452
              6  SI 1  S      1.28450     0.58512
              7  SI 1  X      0.44570     0.42496
              8  SI 1  Y      0.44491     0.42427
              9  SI 1  Z      0.54673     0.51315
             10  SI 1  S      0.54491     0.43278
             11  SI 1  X      0.29641     0.34573
             12  SI 1  Y      0.29579     0.34503
             13  SI 1  Z      0.09681     0.29959
             14  SI 1 XX     -0.00273     0.22585
             15  SI 1 YY     -0.00273     0.22585
             16  SI 1 ZZ      0.03863     0.26632
             17  SI 1 XY      0.00062     0.00062
             18  SI 1 XZ      0.01663     0.01772
             19  SI 1 YZ      0.01661     0.01769
             20  SI 2  S      1.99919     1.99897
             21  SI 2  S      2.00174     1.98722
             22  SI 2  X      1.99198     1.96232
             23  SI 2  Y      1.99198     1.96229
             24  SI 2  Z      1.99233     1.96452
             25  SI 2  S      1.28450     0.58512
             26  SI 2  X      0.44570     0.42496
             27  SI 2  Y      0.44491     0.42427
             28  SI 2  Z      0.54673     0.51315
             29  SI 2  S      0.54491     0.43278
             30  SI 2  X      0.29641     0.34573
             31  SI 2  Y      0.29579     0.34503
             32  SI 2  Z      0.09681     0.29959
             33  SI 2 XX     -0.00273     0.22585
             34  SI 2 YY     -0.00273     0.22585
             35  SI 2 ZZ      0.03863     0.26632
             36  SI 2 XY      0.00062     0.00062
             37  SI 2 XZ      0.01663     0.01772
             38  SI 2 YZ      0.01661     0.01769

          ----- MULLIKEN ATOMIC OVERLAP POPULATIONS -----
          (OFF-DIAGONAL ELEMENTS NEED TO BE MULTIPLIED BY 2)

             1           2

    1   13.5808033
    2    0.4191967  13.5808033

          TOTAL MULLIKEN AND LOWDIN ATOMIC POPULATIONS
       ATOM         MULL.POP.    CHARGE          LOW.POP.     CHARGE
    1 SI           14.000000    0.000000        14.000000    0.000000
    2 SI           14.000000   -0.000000        14.000000    0.000000

          -------------------------------
          BOND ORDER AND VALENCE ANALYSIS     BOND ORDER THRESHOLD=0.050
          -------------------------------

                   BOND                       BOND                       BOND
  ATOM PAIR DIST  ORDER      ATOM PAIR DIST  ORDER      ATOM PAIR DIST  ORDER
    1   2  2.145  2.155

                       TOTAL       BONDED        FREE
      ATOM            VALENCE     VALENCE     VALENCE
    1 SI                2.740       2.155       0.585
    2 SI                2.740       2.155       0.585

          -----------------------------------------
          ATOMIC SPIN DENSITY AT THE NUCLEUS (A.U.)
          -----------------------------------------
                            SPIN DENS    ALPHA DENS     BETA DENS
    1  SI          14.0    -0.1664545     827.23216     827.39861
    2  SI          14.0    -0.1664545     827.23216     827.39861

          ---------------------
          ELECTROSTATIC MOMENTS
          ---------------------

 POINT   1           X           Y           Z (BOHR)    CHARGE
                 0.000000    0.000000   -0.000000        0.00 (A.U.)
         DX          DY          DZ         /D/  (DEBYE)
     0.000000    0.000000   -0.000000    0.000000
 ...... END OF PROPERTY EVALUATION ......
 STEP CPU TIME =     0.00 TOTAL CPU TIME =          0.3 (      0.0 MIN)
 TOTAL WALL CLOCK TIME=          0.3 SECONDS, CPU UTILIZATION IS    99.47%
  $VIB   
          IVIB=   0 IATOM=   0 ICOORD=   0 E=     -577.7034456230
  0.000000000E+00 0.000000000E+00 1.976897284E-05 0.000000000E+00 0.000000000E+00
 -1.976897284E-05
  0.000000000E+00 0.000000000E+00-3.612066735E-14
 ......END OF GEOMETRY SEARCH......
 STEP CPU TIME =     0.00 TOTAL CPU TIME =          0.3 (      0.0 MIN)
 TOTAL WALL CLOCK TIME=          0.3 SECONDS, CPU UTILIZATION IS    99.47%
               993587  WORDS OF DYNAMIC MEMORY USED
 EXECUTION OF GAMESS TERMINATED NORMALLY 19:56:14 20-OCT-2025    
----- accounting info -----
Files used on the parent node Macbooks-MacBook-Pro.local were:
-rw-r--r--  1 macbookpro  staff      241 Oct 20 19:56 /Users/macbookpro/local/gamess/scr/si2_q0m3_uhf_631g_star.F05
-rw-r--r--  1 macbookpro  staff   900080 Oct 20 19:56 /Users/macbookpro/local/gamess/scr/si2_q0m3_uhf_631g_star.F08
-rw-r--r--  1 macbookpro  staff  2094080 Oct 20 19:56 /Users/macbookpro/local/gamess/scr/si2_q0m3_uhf_631g_star.F10
-rw-r--r--  1 macbookpro  staff   151655 Oct 20 19:56 /Users/macbookpro/local/gamess/scr/si2_q0m3_uhf_631g_star.dat
Mon Oct 20 19:56:14 +07 2025
0.310u 0.057s 0:00.36 100.0%	0+0k 0+0io 46pf+0w
