1 : si2h6_q0m1_uhf_631g_star.inp
----- GAMESS execution script 'rungms' -----
This job is running on host Macbooks-MacBook-Pro.local
under operating system Darwin at Mon Oct 20 19:56:15 +07 2025
Available scratch disk space (Kbyte units) at beginning of the job is
Filesystem   1024-blocks      Used Available Capacity iused      ifree %iused  Mounted on
/dev/disk3s5   482797652 122180436 339912776    27% 1896478 3399127760    0%   /System/Volumes/Data
GAMESS temporary binary files will be written to /Users/macbookpro/local/gamess/scr
GAMESS supplementary output files will be written to /Users/macbookpro/local/gamess/scr
Copying input file /Users/macbookpro/sq2_data/si2h6_q0m1_uhf_631g_star.inp to your run's scratch directory...
          *******************************************************
          *                                                     *
          *          GAMESS VERSION = 30 JUN 2023 (R1)          *
          *                                                     *
          *              doi.org/10.1063/5.0005188              *
          *                                                     *
          **************** 64 BIT LINUX VERSION *****************

  GAMESS HAS BEEN MADE POSSIBLE WITH IMPORTANT CONTRIBUTIONS FROM
  THE FOLLOWING INDIVIDUALS (IN ALPHABETICAL ORDER):

     IVANA ADAMOVIC, CHRISTINE AIKENS, TOMOKO AKAMA,
     MELISA ALKAN, YURI ALEXEEV, YURIKO AOKI, POOJA ARORA,
     TOSHIO ASADA, ANDREY ASADCHEV, KIM K. BALDRIDGE,
     PRADIPTA BANDYOPADHYAY, TAYLOR A. BARNES, MARIA BARYSZ,
     ROB BELL, JONATHAN BENTZ, COLLEEN BERTONI,
     JERRY A. BOATZ, BRETT BODE, KURT BRORSEN, KURT R. BRORSEN,
     LAIMUTIS BYTAUTAS, CALEB CARLIN, LAURA CARRINGTON,
     GALINA CHABAN, BENOIT CHAMPAGNE, WEI CHEN, MAHITO CHIBA,
     DAN CHIPMAN, CHEOL HO CHOI, TANNER CULPITT,
     DIPAYAN DATTA, PAUL DAY, ALBERT DEFUSCO,
     NUWAN DESILVA, J. EMILIANO DEUSTUA,
     TIM DUDLEY, MICHEL DUPUIS, STEVEN T. ELBERT,
     DMITRI FEDOROV, KATHERINE FERRERAS, MICHAEL FILATOV,
     ALEX FINDLATER,GRAHAM FLETCHER, MARK FREITAG,
     CHRISTIAN FRIEDL, DAVID GARMER, 
     IGOR S. GERASIMOV, KURT GLAESEMANN,
     MARK S. GORDON, JEFFREY R. GOUR, FENG LONG GU,
     EMILIE B. GUIDEZ, ANASTASIA GUNINA, SHARON HAMMES-SCHIFFER,
     MASATAKE HARUTA, KIMIHIKO HIRAO, YASUHIRO IKABATA,
     TZVETELIN IORDANOV, STEPHAN IRLE, KAZUYA ISHIMURA,
     JOE IVANIC, FRANK JENSEN, JAN H. JENSEN, VISVALDAS KAIRYS,
     MUNEAKI KAMIYA, MICHIO KATOUDA, NAOAKI KAWAKAMI, DAN KEMP,
     BERNARD KIRTMAN, KAZUO KITAURA, MARIUSZ KLOBUKOWSKI,
     MASATO KOBAYASHI, KONSTANTIN KOMAROV, PRAKASHAN KORAMBATH,
     JACEK KORCHOWIEC, SHIRO KOSEKI, KAROL KOWALSKI,
     JIMMY KROMANN, STANISLAW A. KUCHARSKI, HENRY KURTZ,
     SAROM SOK LEANG, SEUNGHOON LEE, HUI LI, SHUHUA LI, WEI LI,
     JESSE J. LUTZ, ALEKSANDR O. LYKHIN,
     ILIAS MAGOULAS, MARCIN MAKOWSKI,
     JOANI MATO, NIKITA MATSUNAGA, BENEDETTA MENNUCCI,
     GRANT MERRILL, NORIYUKI MINEZAWA, VLADIMIR MIRONOV,
     EISAKU MIYOSHI, JOHN A. MONTGOMERY JR., HIROTOSHI MORI,
     JONATHAN MULLIN, MONIKA MUSIAL, SHIGERU NAGASE,
     TAKESHI NAGATA, HIROMI NAKAI, TAKAHITO NAKAJIMA,
     YUYA NAKAJIMA, HARUYUKI NAKANO, HIROYA NAKATA, SEAN NEDD,
     HEATHER NETZLOFF, KIET A. NGUYEN, YOSHIO NISHIMOTO,
     BOSILJKA NJEGIC, RYAN OLSON, MIKE PAK, ROBERTO PEVERATI,
     BUU PHAM, PIOTR PIECUCH, ANNA POMOGAEVA, DAVID POOLE,
     SPENCER PRUITT, OLIVIER QUINET, LUKE ROSKOP,
     KLAUS RUEDENBERG, ANDREW SAND, TOSAPORN SATTASATHUCHANA,
     NOZOMI SAWADA, MICHAEL W. SCHMIDT, PATRICK E. SCHNEIDER,
     JUNJI SEINO, PRACHI SHARMA, JUN SHEN, JIM SHOEMAKER,
     YINAN SHU, DEJUN SI, JONATHAN SKONE, LYUDMILA SLIPCHENKO,
     TONY SMITH, JIE SONG, MARK SPACKMAN, CASPER STEINMANN,
     WALT STEVENS, PEIFENG SU, SHUJUN SU, CHET SWALINA,
     CHINAMI TAKASHIMA, TETSUYA TAKETSUGU, ZHEN TAO,
     NANDUN THELLAMUREGE, SEIKEN TOKURA, JACOPO TOMASI,
     TSUGUKI TOUMA, TAKAO TSUNEDA, HIROAKI UMEDA,
     JORGE LUIS GALVEZ VALLEJO, YALI WANG, SIMON WEBB,
     AARON WEST, THERESA L. WINDUS, MARTA WLOCH,
     PENG XU, KIYOSHI YAGI, SUSUMU YANAGISAWA, YANG YANG,
     SOOHAENG YOO, TAKESHI YOSHIKAWA, FEDERICO ZAHARIEV,
     TOBY ZENG

  WHO ARE SUPPORTED BY THEIR INSTITUTION/UNIVERSITY/COMPANY/GROUP
  (IN ALPHABETICAL ORDER):

     EP ANALYTICS,
     FACULTES UNIVERSITAIRES NOTRE-DAME DE LA PAIX,
     INSTITUTE FOR MOLECULAR SCIENCE, IOWA STATE UNIVERSITY,
     JACKSON STATE UNIVERSITY, JOHANNES KEPLER UNIVERSITY LINZ,
     KYUNGPOOK NATIONAL UNIVERSITY
     KYUSHU UNIVERSITY, MICHIGAN STATE UNIVERSITY,
     MIE UNIVERSITY, THE MOLECULAR SCIENCES SOFTWARE INSTITUTE,
     MOSCOW STATE UNIVERSITY,
     N. COPERNICUS UNIVERSITY, NAGOYA UNIVERSITY,
     NANJING UNIVERSITY, NAT. INST. OF ADVANCED INDUSTRIAL
     SCIENCE AND TECHNOLOGY, NATIONAL INST. OF STANDARDS AND
     TECHNOLOGY, NESMEYANOV INSTITUTE OF ORGANOELEMENT COMPOUNDS
     OF RUSSIAN ACADEMY OF SCIENCES, OSAKA PREFECTURE UNIVERSITY,
     PENNSYLVANIA STATE UNIVERSITY, TOKYO INSTITUTE OF TECHNOLOGY,
     UNIVERSITY OF AARHUS, UNIVERSITY OF ALBERTA,
     UNIVERSITY OF CALIFORNIA AT SANTA BARBARA,
     UNIVERSITY OF COPENHAGEN, UNIVERSITY OF IOWA,
     UNIVERSITY OF MEMPHIS, UNIVERSITY OF MINNESOTA,
     UNIVERSITY OF NEBRASKA, UNIVERSITY OF NEW ENGLAND,
     UNIVERSITY OF NOTRE DAME, UNIVERSITY OF PISA,
     UNIVERSITY OF SILESIA, UNIVERSITY OF TOKYO,
     UNIVERSITY OF ZURICH, WASEDA UNIVERSITY,
     YALE UNIVERSITY

  GAMESS SOFTWARE MANAGEMENT TEAM FOR THIS RELEASE:
     MARK S. GORDON (TEAM LEAD),
     BRETT BODE (SENIOR ADVISOR),
     GIUSEPPE BARCA,
     COLLEEN BERTONI,
     KRISTOPHER KEIPERT (ADVISOR),
     SAROM S. LEANG (DEVELOPMENT LEAD),
     BUU PHAM,
     JACKSON HAYES (WEBSITE ADMINISTRATOR),
     PENG XU

 EXECUTION OF GAMESS BEGUN 19:56:15 20-OCT-2025    

            ECHO OF THE FIRST FEW INPUT CARDS -
 INPUT CARD> $CONTRL SCFTYP=UHF ICHARG=0 MULT=1                                             
 INPUT CARD> RUNTYP=OPTIMIZE                                                                
 INPUT CARD> $END                                                                           
 INPUT CARD> $BASIS GBASIS=N31 NGAUSS=6 NDFUNC=1 $END                                       
 INPUT CARD> $DATA                                                                          
 INPUT CARD> ... this is comment ...                                                        
 INPUT CARD> C1                                                                             
 INPUT CARD> SI   14   0.00000010   0.00001907   1.17417262                                 
 INPUT CARD> SI   14  -0.00000102  -0.00002197  -1.17417334                                 
 INPUT CARD> H     1  -0.00000210   1.39854538   1.69431417                                 
 INPUT CARD> H     1  -1.21113650  -0.69928324   1.69432052                                 
 INPUT CARD> H     1   1.21113862  -0.69927988   1.69432044                                 
 INPUT CARD> H     1  -0.00000046  -1.39854830  -1.69431432                                 
 INPUT CARD> H     1  -1.21113409   0.69928731  -1.69432001                                 
 INPUT CARD> H     1   1.21113545   0.69928162  -1.69432008                                 
 INPUT CARD> $END                                                                           
 INPUT CARD>                                                                                
      1000000 WORDS OF MEMORY AVAILABLE

     BASIS OPTIONS
     -------------
     GBASIS=N31          IGAUSS=       6      POLAR=POPN31  
     NDFUNC=       1     NFFUNC=       0     DIFFSP=       F
     NPFUNC=       0      DIFFS=       F     BASNAM=        


     RUN TITLE
     ---------
  ... this is comment ...                                                        

 THE POINT GROUP OF THE MOLECULE IS C1      
 THE ORDER OF THE PRINCIPAL AXIS IS     0

 ATOM      ATOMIC                      COORDINATES (BOHR)
           CHARGE         X                   Y                   Z
 SI         14.0     0.0000001890        0.0000360371        2.2188645141
 SI         14.0    -0.0000019275       -0.0000415173       -2.2188658747
 H           1.0    -0.0000039684        2.6428675496        3.2017895184
 H           1.0    -2.2887161187       -1.3214537114        3.2018015182
 H           1.0     2.2887201249       -1.3214473619        3.2018013670
 H           1.0    -0.0000008693       -2.6428730676       -3.2017898019
 H           1.0    -2.2887115645        1.3214614026       -3.2018005544
 H           1.0     2.2887141345        1.3214506501       -3.2018006867

          INTERNUCLEAR DISTANCES (ANGS.)
          ------------------------------

                1 SI         2 SI         3 H          4 H          5 H     

   1 SI      0.0000000    2.3483460 *  1.4921203 *  1.4921225 *  1.4921224 *
   2 SI      2.3483460 *  0.0000000    3.1912711    3.1912494    3.1912501  
   3 H       1.4921203 *  3.1912711    0.0000000    2.4223401 *  2.4223403 *
   4 H       1.4921225 *  3.1912494    2.4223401 *  0.0000000    2.4222751 *
   5 H       1.4921224 *  3.1912501    2.4223403 *  2.4222751 *  0.0000000  
   6 H       3.1912706    1.4921201 *  4.3939204    3.6658789    3.6658805  
   7 H       3.1912493    1.4921224 *  3.6658756    3.6659084    4.3938911  
   8 H       3.1912486    1.4921225 *  3.6658786    4.3938901    3.6659049  

                6 H          7 H          8 H     

   1 SI      3.1912706    3.1912493    3.1912486  
   2 SI      1.4921201 *  1.4921224 *  1.4921225 *
   3 H       4.3939204    3.6658756    3.6658786  
   4 H       3.6658789    3.6659084    4.3938901  
   5 H       3.6658805    4.3938911    3.6659049  
   6 H       0.0000000    2.4223457 *  2.4223420 *
   7 H       2.4223457 *  0.0000000    2.4222695 *
   8 H       2.4223420 *  2.4222695 *  0.0000000  

  * ... LESS THAN  3.000


     ATOMIC BASIS SET
     ----------------
 THE CONTRACTED PRIMITIVE FUNCTIONS HAVE BEEN UNNORMALIZED
 THE CONTRACTED BASIS FUNCTIONS ARE NOW NORMALIZED TO UNITY

  SHELL TYPE  PRIMITIVE        EXPONENT          CONTRACTION COEFFICIENT(S)

 SI        

      1   S       1         16192.1000000    0.001949239405
      1   S       2          2436.0900000    0.014855895466
      1   S       3           556.0010000    0.072568877851
      1   S       4           156.8130000    0.245654925022
      1   S       5            50.1692000    0.486059851646
      1   S       6            17.0300000    0.325719900585

      2   L       7           293.3500000   -0.002829912441    0.004433341604
      2   L       8            70.1173000   -0.036073731114    0.032440211739
      2   L       9            22.4301000   -0.116808100749    0.133719048387
      2   L      10             8.1942500    0.093576880711    0.326780118247
      2   L      11             3.1476800    0.601705518979    0.451139163247
      2   L      12             1.2151500    0.422072364043    0.264105095568

      3   L      13             1.6537000   -0.240599186106   -0.015177406538
      3   L      14             0.5407600    0.073795050368    0.275139118516
      3   L      15             0.2044060    1.040936478740    0.783008337279

      4   L      16             0.0723837    1.000000000000    1.000000000000

      5   D      17             0.3950000    1.000000000000

 SI        

      6   S      18         16192.1000000    0.001949239405
      6   S      19          2436.0900000    0.014855895466
      6   S      20           556.0010000    0.072568877851
      6   S      21           156.8130000    0.245654925022
      6   S      22            50.1692000    0.486059851646
      6   S      23            17.0300000    0.325719900585

      7   L      24           293.3500000   -0.002829912441    0.004433341604
      7   L      25            70.1173000   -0.036073731114    0.032440211739
      7   L      26            22.4301000   -0.116808100749    0.133719048387
      7   L      27             8.1942500    0.093576880711    0.326780118247
      7   L      28             3.1476800    0.601705518979    0.451139163247
      7   L      29             1.2151500    0.422072364043    0.264105095568

      8   L      30             1.6537000   -0.240599186106   -0.015177406538
      8   L      31             0.5407600    0.073795050368    0.275139118516
      8   L      32             0.2044060    1.040936478740    0.783008337279

      9   L      33             0.0723837    1.000000000000    1.000000000000

     10   D      34             0.3950000    1.000000000000

 H         

     11   S      35            18.7311370    0.033494604338
     11   S      36             2.8253944    0.234726953484
     11   S      37             0.6401217    0.813757326146

     12   S      38             0.1612778    1.000000000000

 H         

     13   S      39            18.7311370    0.033494604338
     13   S      40             2.8253944    0.234726953484
     13   S      41             0.6401217    0.813757326146

     14   S      42             0.1612778    1.000000000000

 H         

     15   S      43            18.7311370    0.033494604338
     15   S      44             2.8253944    0.234726953484
     15   S      45             0.6401217    0.813757326146

     16   S      46             0.1612778    1.000000000000

 H         

     17   S      47            18.7311370    0.033494604338
     17   S      48             2.8253944    0.234726953484
     17   S      49             0.6401217    0.813757326146

     18   S      50             0.1612778    1.000000000000

 H         

     19   S      51            18.7311370    0.033494604338
     19   S      52             2.8253944    0.234726953484
     19   S      53             0.6401217    0.813757326146

     20   S      54             0.1612778    1.000000000000

 H         

     21   S      55            18.7311370    0.033494604338
     21   S      56             2.8253944    0.234726953484
     21   S      57             0.6401217    0.813757326146

     22   S      58             0.1612778    1.000000000000

 TOTAL NUMBER OF BASIS SET SHELLS             =   22
 NUMBER OF CARTESIAN GAUSSIAN BASIS FUNCTIONS =   50
 NUMBER OF ELECTRONS                          =   34
 CHARGE OF MOLECULE                           =    0
 SPIN MULTIPLICITY                            =    1
 NUMBER OF OCCUPIED ORBITALS (ALPHA)          =   17
 NUMBER OF OCCUPIED ORBITALS (BETA )          =   17
 TOTAL NUMBER OF ATOMS                        =    8
 THE NUCLEAR REPULSION ENERGY IS       90.4242408176

     $CONTRL OPTIONS
     ---------------
 SCFTYP=UHF          RUNTYP=OPTIMIZE     EXETYP=RUN     
 MPLEVL=       0     CITYP =NONE         CCTYP =NONE         VBTYP =NONE    
 DFTTYP=NONE         TDDFT =NONE    
 MULT  =       1     ICHARG=       0     NZVAR =       0     COORD =UNIQUE  
 PP    =NONE         RELWFN=NONE         LOCAL =NONE         NUMGRD=       F
 ISPHER=      -1     NOSYM =       0     MAXIT =      30     UNITS =ANGS    
 PLTORB=       F     MOLPLT=       F     AIMPAC=       F     FRIEND=        
 NPRINT=       7     IREST =       0     GEOM  =INPUT   
 NORMF =       0     NORMP =       0     ITOL  =      20     ICUT  =       9
 INTTYP=BEST         GRDTYP=BEST         QMTTOL= 1.0E-06

     $SYSTEM OPTIONS
     ---------------
  REPLICATED MEMORY=     1000000 WORDS (ON EVERY NODE).
 DISTRIBUTED MEMDDI=           0 MILLION WORDS IN AGGREGATE,
 MEMDDI DISTRIBUTED OVER   1 PROCESSORS IS           0 WORDS/PROCESSOR.
 TOTAL MEMORY REQUESTED ON EACH PROCESSOR=     1000000 WORDS.
 TIMLIM=      525600.00 MINUTES, OR     365.0 DAYS.
 PARALL= F  BALTYP=  DLB     KDIAG=    0  COREFL= F
 MXSEQ2=     300 MXSEQ3=     150  mem10=         0  mem22=         0

          ----------------
          PROPERTIES INPUT
          ----------------

     MOMENTS            FIELD           POTENTIAL          DENSITY
 IEMOM =       1   IEFLD =       0   IEPOT =       0   IEDEN =       0
 WHERE =COMASS     WHERE =NUCLEI     WHERE =NUCLEI     WHERE =NUCLEI  
 OUTPUT=BOTH       OUTPUT=BOTH       OUTPUT=BOTH       OUTPUT=BOTH    
 IEMINT=       0   IEFINT=       0                     IEDINT=       0
                                                       MORB  =       0
          EXTRAPOLATION IN EFFECT
          SOSCF IN EFFECT
          DIIS or SOSCF will be reset if energy rises
 ORBITAL PRINTING OPTION: NPREO=     1    50     2     1

     -------------------------------
     INTEGRAL TRANSFORMATION OPTIONS
     -------------------------------
     NWORD  =            0
     CUTTRF = 1.0E-09     MPTRAN =       0
     DIRTRF =       F     AOINTS =DUP     

          ----------------------
          INTEGRAL INPUT OPTIONS
          ----------------------
 NOPK  =       1 NORDER=       0 SCHWRZ=       T

     ------------------------------------------
     THE POINT GROUP IS C1 , NAXIS= 0, ORDER= 1
     ------------------------------------------

     DIMENSIONS OF THE SYMMETRY SUBSPACES ARE
 A   =   50

 ..... DONE SETTING UP THE RUN .....
 STEP CPU TIME =     0.00 TOTAL CPU TIME =          0.0 (      0.0 MIN)
 TOTAL WALL CLOCK TIME=          0.0 SECONDS, CPU UTILIZATION IS    97.43%


          -----------------------------
          STATIONARY POINT LOCATION RUN
          -----------------------------

 OBTAINING INITIAL HESSIAN, HESS=GUESS   
 CARTESIAN COORDINATE OPTIMIZATION USING BADGER'S RULE FORCE CONSTANT GUESS

          PARAMETERS CONTROLLING GEOMETRY SEARCH ARE
          METHOD =QA                  UPHESS =BFGS    
          NNEG   =         0          NFRZ   =         0
          NSTEP  =        50          IFOLOW =         1
          HESS   =GUESS               RESTAR =         F
          IHREP  =         0          HSSEND =         F
          NPRT   =         0          NPUN   =         0
          OPTTOL = 1.000E-04          RMIN   = 1.500E-03
          RMAX   = 1.000E-01          RLIM   = 7.000E-02
          DXMAX  = 3.000E-01          PURIFY =         F
          MOVIE  =         F          TRUPD  =         T
          TRMAX  = 5.000E-01          TRMIN  = 5.000E-02
          ITBMAT =         5          STPT   =         F
          STSTEP = 1.000E-02          PROJCT=          T

 BEGINNING GEOMETRY SEARCH POINT NSERCH=   0 ...

 COORDINATES OF ALL ATOMS ARE (ANGS)
   ATOM   CHARGE       X              Y              Z
 ------------------------------------------------------------
 SI         14.0   0.0000001000   0.0000190700   1.1741726200
 SI         14.0  -0.0000010200  -0.0000219700  -1.1741733400
 H           1.0  -0.0000021000   1.3985453800   1.6943141700
 H           1.0  -1.2111365000  -0.6992832400   1.6943205200
 H           1.0   1.2111386200  -0.6992798800   1.6943204400
 H           1.0  -0.0000004600  -1.3985483000  -1.6943143200
 H           1.0  -1.2111340900   0.6992873100  -1.6943200100
 H           1.0   1.2111354500   0.6992816200  -1.6943200800

          ********************
          1 ELECTRON INTEGRALS
          ********************
 ...... END OF ONE-ELECTRON INTEGRALS ......
 STEP CPU TIME =     0.00 TOTAL CPU TIME =          0.0 (      0.0 MIN)
 TOTAL WALL CLOCK TIME=          0.0 SECONDS, CPU UTILIZATION IS    97.85%

          -------------
          GUESS OPTIONS
          -------------
          GUESS =HUCKEL            NORB  =       0          NORDER=       0
          MIX   =       F          PRTMO =       F          PUNMO =       F
          TOLZ  = 1.0E-08          TOLE  = 1.0E-05
          SYMDEN=       F          PURIFY=       F

 INITIAL GUESS ORBITALS GENERATED BY HUCKEL   ROUTINE.
 HUCKEL GUESS REQUIRES     26480 WORDS.

 SYMMETRIES FOR INITIAL GUESS ORBITALS FOLLOW.  ALPHA SET(S).
    17 ORBITALS ARE OCCUPIED (   10 CORE ORBITALS).
    11=A       12=A       13=A       14=A       15=A       16=A       17=A   
    18=A       19=A       20=A       21=A       22=A       23=A       24=A   
    25=A       26=A       27=A   

 SYMMETRIES FOR INITIAL GUESS ORBITALS FOLLOW.   BETA SET(S).
    17 ORBITALS ARE OCCUPIED (   10 CORE ORBITALS).
    11=A       12=A       13=A       14=A       15=A       16=A       17=A   
    18=A       19=A       20=A       21=A       22=A       23=A       24=A   
    25=A       26=A       27=A   
 ...... END OF INITIAL ORBITAL SELECTION ......
 STEP CPU TIME =     0.00 TOTAL CPU TIME =          0.0 (      0.0 MIN)
 TOTAL WALL CLOCK TIME=          0.0 SECONDS, CPU UTILIZATION IS    98.32%

                    ----------------------
                    AO INTEGRAL TECHNOLOGY
                    ----------------------
     S,P,L SHELL ROTATED AXIS INTEGRALS, REPROGRAMMED BY
        KAZUYA ISHIMURA (IMS) AND JOSE SIERRA (SYNSTAR).
     S,P,D,L SHELL ROTATED AXIS INTEGRALS PROGRAMMED BY
        KAZUYA ISHIMURA (INSTITUTE FOR MOLECULAR SCIENCE).
     S,P,D,F,G SHELL TO TOTAL QUARTET ANGULAR MOMENTUM SUM 5,
        ERIC PROGRAM BY GRAHAM FLETCHER (ELORET AND NASA ADVANCED
        SUPERCOMPUTING DIVISION, AMES RESEARCH CENTER).
     S,P,D,F,G,L SHELL GENERAL RYS QUADRATURE PROGRAMMED BY
        MICHEL DUPUIS (PACIFIC NORTHWEST NATIONAL LABORATORY).

          --------------------
          2 ELECTRON INTEGRALS
          --------------------

 THE -PK- OPTION IS OFF, THE INTEGRALS ARE NOT IN SUPERMATRIX FORM.
 STORING   15000 INTEGRALS/RECORD ON DISK, USING 12 BYTES/INTEGRAL.
 TWO ELECTRON INTEGRAL EVALUATION REQUIRES   90649 WORDS OF MEMORY.
 SCHWARZ INEQUALITY OVERHEAD:      1274 INTEGRALS, T=        0.00
 II,JST,KST,LST =  1  1  1  1 NREC =         1 INTLOC =    1
 II,JST,KST,LST =  2  1  1  1 NREC =         1 INTLOC =    2
 II,JST,KST,LST =  3  1  1  1 NREC =         1 INTLOC =   34
 II,JST,KST,LST =  4  1  1  1 NREC =         1 INTLOC =  214
 II,JST,KST,LST =  5  1  1  1 NREC =         1 INTLOC =  776
 II,JST,KST,LST =  6  1  1  1 NREC =         1 INTLOC = 2864
 II,JST,KST,LST =  7  1  1  1 NREC =         1 INTLOC = 4120
 II,JST,KST,LST =  8  1  1  1 NREC =         1 INTLOC =13710
 II,JST,KST,LST =  9  1  1  1 NREC =         3 INTLOC = 4832
 II,JST,KST,LST = 10  1  1  1 NREC =         5 INTLOC = 7702
 II,JST,KST,LST = 11  1  1  1 NREC =        10 INTLOC = 3244
 II,JST,KST,LST = 12  1  1  1 NREC =        11 INTLOC = 6891
 II,JST,KST,LST = 13  1  1  1 NREC =        12 INTLOC =14836
 II,JST,KST,LST = 14  1  1  1 NREC =        15 INTLOC =  643
 II,JST,KST,LST = 15  1  1  1 NREC =        17 INTLOC = 6518
 II,JST,KST,LST = 16  1  1  1 NREC =        19 INTLOC =11899
 II,JST,KST,LST = 17  1  1  1 NREC =        22 INTLOC = 8015
 II,JST,KST,LST = 18  1  1  1 NREC =        24 INTLOC = 7560
 II,JST,KST,LST = 19  1  1  1 NREC =        26 INTLOC =14404
 II,JST,KST,LST = 20  1  1  1 NREC =        29 INTLOC =13987
 II,JST,KST,LST = 21  1  1  1 NREC =        33 INTLOC = 6840
 II,JST,KST,LST = 22  1  1  1 NREC =        36 INTLOC =12221
 SCHWARZ INEQUALITY TEST SKIPPED        3775 INTEGRAL BLOCKS.
 TOTAL NUMBER OF NONZERO TWO-ELECTRON INTEGRALS =              596827
         40 INTEGRAL RECORDS WERE STORED ON DISK FILE  8.
  ...... END OF TWO-ELECTRON INTEGRALS .....
 STEP CPU TIME =     0.03 TOTAL CPU TIME =          0.0 (      0.0 MIN)
 TOTAL WALL CLOCK TIME=          0.0 SECONDS, CPU UTILIZATION IS    99.58%

          ---------------------------
                  UHF SCF CALCULATION
          ---------------------------

     NUCLEAR ENERGY =        90.4242408176
     MAXIT = 30     NPUNCH=  2     MULT=  1
     EXTRAP=T  DAMP=F  SHIFT=F  RSTRCT=F  DIIS=F  SOSCF=T
     DENSITY MATRIX CONV=  1.00E-05
     SOSCF WILL OPTIMIZE     561 ALPHA AND     561 BETA ROTATION ANGLES.
     SOGTOL= 2.500E-01
     MEMORY REQUIRED FOR UHF/ROHF ITERS=     63654 WORDS.

 ITER EX      TOTAL ENERGY        E CHANGE  DENSITY CHANGE    ORB. GRAD 
   1  0     -580.9553220163  -580.9553220163   0.205676920   0.000000000
          ---------------START SECOND ORDER SCF---------------
   2  1     -581.2931484596    -0.3378264433   0.036757308   0.022209020
   3  2     -581.3036050977    -0.0104566381   0.021216412   0.007954436
   4  3     -581.3047181283    -0.0011130306   0.002857410   0.001130536
   5  4     -581.3047426013    -0.0000244731   0.001009935   0.000444681
   6  5     -581.3047444793    -0.0000018780   0.000090505   0.000047200
   7  6     -581.3047445071    -0.0000000277   0.000020732   0.000007036
   8  7     -581.3047445087    -0.0000000017   0.000005624   0.000001305
   9  8     -581.3047445087    -0.0000000000   0.000001008   0.000000281

          -----------------
          DENSITY CONVERGED
          -----------------
     TIME TO FORM FOCK OPERATORS=       0.0 SECONDS (       0.0 SEC/ITER)
     TIME TO SOLVE SCF EQUATIONS=       0.0 SECONDS (       0.0 SEC/ITER)

 FINAL UHF ENERGY IS     -581.3047445087 AFTER   9 ITERATIONS

          --------------------
          SPIN SZ   =    0.000
          S-SQUARED =   -0.000
          --------------------

  ----- ALPHA SET ----- 

          ------------
          EIGENVECTORS
          ------------

                      1          2          3          4          5
                  -68.7688   -68.7688    -6.1271    -6.1270    -4.2328
                     A          A          A          A          A   
    1  SI 1  S   -0.701435   0.708324  -0.189598  -0.189694   0.000000
    2  SI 1  S   -0.008765   0.008864   0.728450   0.728870  -0.000000
    3  SI 1  X    0.000000  -0.000000   0.000000   0.000000   0.703135
    4  SI 1  Y   -0.000000   0.000000   0.000000   0.000000   0.009847
    5  SI 1  Z    0.000002  -0.000011  -0.000002   0.000005   0.000008
    6  SI 1  S    0.012032  -0.011807   0.005323   0.005484   0.000000
    7  SI 1  X   -0.000000  -0.000000   0.000000   0.000000   0.013431
    8  SI 1  Y   -0.000000  -0.000000   0.000000   0.000000   0.000188
    9  SI 1  Z   -0.000126  -0.000062  -0.000095  -0.000144   0.000000
   10  SI 1  S   -0.001656   0.001198  -0.001594  -0.003413  -0.000000
   11  SI 1  X    0.000000  -0.000000  -0.000000  -0.000000  -0.002703
   12  SI 1  Y   -0.000000   0.000000  -0.000000   0.000000  -0.000038
   13  SI 1  Z    0.000310  -0.000056   0.000099   0.000937  -0.000000
   14  SI 1 XX   -0.004168   0.004187   0.001119   0.001119  -0.000006
   15  SI 1 YY   -0.004168   0.004187   0.001119   0.001119   0.000006
   16  SI 1 ZZ   -0.004191   0.004169   0.001030   0.001130  -0.000000
   17  SI 1 XY    0.000000   0.000000   0.000000   0.000000  -0.000465
   18  SI 1 XZ   -0.000000  -0.000000   0.000000   0.000000   0.000471
   19  SI 1 YZ   -0.000000  -0.000000   0.000000   0.000000   0.000007
   20  SI 2  S    0.708318   0.701441  -0.189680   0.189612  -0.000000
   21  SI 2  S    0.008851   0.008778   0.728764  -0.728556   0.000000
   22  SI 2  X    0.000000   0.000000  -0.000000   0.000000   0.703805
   23  SI 2  Y   -0.000000  -0.000000  -0.000000   0.000000   0.009878
   24  SI 2  Z    0.000002   0.000011   0.000002   0.000005  -0.000010
   25  SI 2  S   -0.012147  -0.011689   0.005325  -0.005481  -0.000000
   26  SI 2  X   -0.000000   0.000000  -0.000000   0.000000   0.013444
   27  SI 2  Y   -0.000000   0.000000  -0.000000   0.000000   0.000189
   28  SI 2  Z   -0.000125   0.000063   0.000095  -0.000144  -0.000000
   29  SI 2  S    0.001668   0.001182  -0.001596   0.003412   0.000000
   30  SI 2  X   -0.000000  -0.000000   0.000000  -0.000000  -0.002706
   31  SI 2  Y   -0.000000  -0.000000   0.000000   0.000000  -0.000038
   32  SI 2  Z    0.000311   0.000053  -0.000100   0.000937   0.000000
   33  SI 2 XX    0.004209   0.004146   0.001119  -0.001119   0.000006
   34  SI 2 YY    0.004209   0.004146   0.001119  -0.001119  -0.000006
   35  SI 2 ZZ    0.004231   0.004128   0.001031  -0.001130   0.000000
   36  SI 2 XY    0.000000   0.000000   0.000000  -0.000000   0.000465
   37  SI 2 XZ    0.000000  -0.000000   0.000000  -0.000000  -0.000471
   38  SI 2 YZ    0.000000  -0.000000   0.000000  -0.000000  -0.000007
   39  H  3  S    0.000029  -0.000040   0.000214   0.000245   0.000008
   40  H  3  S   -0.000145   0.000093   0.000050   0.000080  -0.000007
   41  H  4  S    0.000029  -0.000040   0.000214   0.000245  -0.000484
   42  H  4  S   -0.000145   0.000093   0.000050   0.000080   0.000415
   43  H  5  S    0.000029  -0.000040   0.000214   0.000245   0.000476
   44  H  5  S   -0.000145   0.000093   0.000050   0.000080  -0.000408
   45  H  6  S   -0.000029  -0.000039   0.000214  -0.000245  -0.000008
   46  H  6  S    0.000146   0.000091   0.000050  -0.000080   0.000007
   47  H  7  S   -0.000029  -0.000039   0.000214  -0.000245  -0.000477
   48  H  7  S    0.000146   0.000091   0.000050  -0.000080   0.000408
   49  H  8  S   -0.000029  -0.000039   0.000214  -0.000245   0.000485
   50  H  8  S    0.000146   0.000091   0.000050  -0.000080  -0.000415

                      6          7          8          9         10
                   -4.2328    -4.2327    -4.2327    -4.2327    -4.2321
                     A          A          A          A          A   
    1  SI 1  S    0.000000   0.000052   0.000000   0.000000   0.000033
    2  SI 1  S   -0.000000  -0.000190  -0.000000  -0.000000  -0.000278
    3  SI 1  X   -0.009869   0.000028   0.703755  -0.009384   0.000000
    4  SI 1  Y    0.703213  -0.000189   0.009407   0.703677   0.000013
    5  SI 1  Z   -0.000049  -0.703314   0.000017  -0.000153   0.703693
    6  SI 1  S    0.000000   0.000190  -0.000000   0.000000  -0.000363
    7  SI 1  X   -0.000189   0.000001   0.013927  -0.000186   0.000000
    8  SI 1  Y    0.013432  -0.000004   0.000186   0.013925   0.000000
    9  SI 1  Z   -0.000001  -0.013363   0.000000  -0.000003   0.014371
   10  SI 1  S   -0.000001  -0.001109   0.000000  -0.000000   0.003718
   11  SI 1  X    0.000038  -0.000000  -0.003294   0.000044   0.000000
   12  SI 1  Y   -0.002703   0.000001  -0.000044  -0.003293  -0.000000
   13  SI 1  Z    0.000000   0.003143  -0.000000   0.000001  -0.004706
   14  SI 1 XX   -0.000403  -0.000226  -0.000006  -0.000431   0.000180
   15  SI 1 YY    0.000403  -0.000226   0.000006   0.000431   0.000180
   16  SI 1 ZZ   -0.000000   0.000331  -0.000000  -0.000000  -0.001107
   17  SI 1 XY    0.000007  -0.000000  -0.000497   0.000007  -0.000000
   18  SI 1 XZ   -0.000007   0.000000   0.000056  -0.000001   0.000000
   19  SI 1 YZ    0.000471  -0.000000   0.000001   0.000056   0.000000
   20  SI 2  S   -0.000000   0.000052   0.000000   0.000000  -0.000033
   21  SI 2  S    0.000000  -0.000190  -0.000000  -0.000000   0.000278
   22  SI 2  X   -0.009855  -0.000008  -0.703085   0.009399   0.000001
   23  SI 2  Y    0.703726   0.000113  -0.009376  -0.703163   0.000009
   24  SI 2  Z    0.000028   0.703379  -0.000016   0.000149   0.703628
   25  SI 2  S   -0.000000   0.000190  -0.000000   0.000000   0.000363
   26  SI 2  X   -0.000188  -0.000000  -0.013914   0.000186   0.000000
   27  SI 2  Y    0.013443   0.000002  -0.000186  -0.013915   0.000000
   28  SI 2  Z    0.000001   0.013365  -0.000000   0.000003   0.014370
   29  SI 2  S    0.000000  -0.001109   0.000000  -0.000000  -0.003717
   30  SI 2  X    0.000038   0.000000   0.003291  -0.000044  -0.000000
   31  SI 2  Y   -0.002705  -0.000001   0.000044   0.003291  -0.000000
   32  SI 2  Z   -0.000000  -0.003143   0.000000  -0.000001  -0.004705
   33  SI 2 XX    0.000403  -0.000226  -0.000006  -0.000431  -0.000180
   34  SI 2 YY   -0.000403  -0.000226   0.000006   0.000430  -0.000180
   35  SI 2 ZZ    0.000000   0.000331  -0.000000  -0.000000   0.001106
   36  SI 2 XY   -0.000007  -0.000000  -0.000497   0.000007   0.000000
   37  SI 2 XZ    0.000007  -0.000000   0.000056  -0.000001  -0.000000
   38  SI 2 YZ   -0.000471  -0.000000   0.000001   0.000056  -0.000000
   39  H  3  S    0.000555  -0.000310   0.000007   0.000545   0.000208
   40  H  3  S   -0.000475   0.000932  -0.000009  -0.000667  -0.000330
   41  H  4  S   -0.000271  -0.000309  -0.000476  -0.000267   0.000208
   42  H  4  S    0.000232   0.000932   0.000582   0.000326  -0.000330
   43  H  5  S   -0.000284  -0.000309   0.000469  -0.000279   0.000208
   44  H  5  S    0.000243   0.000932  -0.000573   0.000341  -0.000330
   45  H  6  S   -0.000555  -0.000310   0.000007   0.000545  -0.000208
   46  H  6  S    0.000475   0.000932  -0.000009  -0.000666   0.000330
   47  H  7  S    0.000284  -0.000309   0.000468  -0.000279  -0.000208
   48  H  7  S   -0.000244   0.000932  -0.000573   0.000341   0.000330
   49  H  8  S    0.000271  -0.000309  -0.000476  -0.000266  -0.000208
   50  H  8  S   -0.000232   0.000932   0.000582   0.000326   0.000330

                     11         12         13         14         15
                   -0.7549    -0.6763    -0.4973    -0.4973    -0.4702
                     A          A          A          A          A   
    1  SI 1  S    0.039434   0.035228   0.000000   0.000000   0.000000
    2  SI 1  S   -0.191222  -0.172372  -0.000001  -0.000000  -0.000000
    3  SI 1  X    0.000000  -0.000000   0.001500  -0.118111   0.001454
    4  SI 1  Y    0.000001   0.000000  -0.118109  -0.001501  -0.113416
    5  SI 1  Z    0.015139  -0.045826   0.000001  -0.000000  -0.000002
    6  SI 1  S    0.378669   0.345354   0.000003   0.000000   0.000002
    7  SI 1  X   -0.000000   0.000000  -0.003808   0.299777  -0.003744
    8  SI 1  Y   -0.000002  -0.000000   0.299772   0.003810   0.291996
    9  SI 1  Z   -0.041410   0.114562  -0.000002   0.000000   0.000004
   10  SI 1  S    0.078405   0.084582  -0.000004  -0.000000  -0.000002
   11  SI 1  X    0.000000  -0.000000  -0.000587   0.046181  -0.000468
   12  SI 1  Y    0.000001   0.000000   0.046176   0.000587   0.036528
   13  SI 1  Z   -0.007185  -0.002995   0.000001   0.000000   0.000000
   14  SI 1 XX    0.014707   0.028382  -0.049150  -0.000624  -0.053958
   15  SI 1 YY    0.014709   0.028385   0.049150   0.000624   0.053959
   16  SI 1 ZZ    0.024322  -0.022496  -0.000000  -0.000000  -0.000001
   17  SI 1 XY   -0.000000  -0.000000   0.000721  -0.056758   0.000799
   18  SI 1 XZ    0.000000  -0.000000  -0.000414   0.032582  -0.000614
   19  SI 1 YZ    0.000000  -0.000001   0.032583   0.000414   0.047880
   20  SI 2  S    0.039434  -0.035228  -0.000000  -0.000000   0.000000
   21  SI 2  S   -0.191222   0.172372   0.000001   0.000000  -0.000001
   22  SI 2  X   -0.000000   0.000000   0.001501  -0.118109  -0.001454
   23  SI 2  Y   -0.000001   0.000000  -0.118112  -0.001500   0.113413
   24  SI 2  Z   -0.015139  -0.045826   0.000001   0.000000   0.000002
   25  SI 2  S    0.378669  -0.345354  -0.000003  -0.000000   0.000002
   26  SI 2  X    0.000000  -0.000000  -0.003810   0.299772   0.003742
   27  SI 2  Y    0.000002  -0.000000   0.299780   0.003808  -0.291989
   28  SI 2  Z    0.041410   0.114562  -0.000002  -0.000000  -0.000004
   29  SI 2  S    0.078405  -0.084581   0.000004   0.000000  -0.000002
   30  SI 2  X   -0.000000   0.000000  -0.000587   0.046180   0.000468
   31  SI 2  Y   -0.000001   0.000001   0.046177   0.000587  -0.036526
   32  SI 2  Z    0.007185  -0.002995   0.000000  -0.000000  -0.000000
   33  SI 2 XX    0.014707  -0.028381   0.049151   0.000625  -0.053956
   34  SI 2 YY    0.014710  -0.028386  -0.049151  -0.000625   0.053958
   35  SI 2 ZZ    0.024322   0.022496  -0.000000  -0.000000  -0.000001
   36  SI 2 XY   -0.000000   0.000000  -0.000722   0.056757   0.000799
   37  SI 2 XZ   -0.000000   0.000000   0.000414  -0.032581  -0.000614
   38  SI 2 YZ    0.000000   0.000001  -0.032584  -0.000414   0.047879
   39  H  3  S    0.087529   0.110619   0.182667   0.002321   0.193431
   40  H  3  S    0.065227   0.097222   0.213126   0.002708   0.246178
   41  H  4  S    0.087528   0.110617  -0.089326  -0.159359  -0.094567
   42  H  4  S    0.065227   0.097220  -0.104218  -0.185934  -0.120352
   43  H  5  S    0.087528   0.110617  -0.093344   0.157038  -0.098862
   44  H  5  S    0.065227   0.097220  -0.108906   0.183225  -0.125819
   45  H  6  S    0.087529  -0.110619  -0.182672  -0.002320   0.193426
   46  H  6  S    0.065227  -0.097222  -0.213132  -0.002707   0.246172
   47  H  7  S    0.087528  -0.110617   0.093348  -0.157035  -0.098860
   48  H  7  S    0.065227  -0.097220   0.108911  -0.183223  -0.125816
   49  H  8  S    0.087528  -0.110617   0.089327   0.159356  -0.094565
   50  H  8  S    0.065227  -0.097220   0.104219   0.185930  -0.120350

                     16         17         18         19         20
                   -0.4702    -0.4032     0.1350     0.1414     0.1414
                     A          A          A          A          A   
    1  SI 1  S   -0.000000  -0.007936  -0.019290  -0.000000  -0.000003
    2  SI 1  S    0.000000   0.032951   0.102429   0.000001   0.000018
    3  SI 1  X    0.113412   0.000000   0.000000  -0.046911   0.000564
    4  SI 1  Y    0.001454   0.000001   0.000012  -0.000564  -0.046909
    5  SI 1  Z    0.000000  -0.159877  -0.069800  -0.000001  -0.000015
    6  SI 1  S   -0.000000  -0.108338  -0.205142  -0.000002  -0.000032
    7  SI 1  X   -0.291987  -0.000000  -0.000001   0.141986  -0.001708
    8  SI 1  Y   -0.003742  -0.000003  -0.000037   0.001708   0.141981
    9  SI 1  Z   -0.000000   0.430495   0.161524   0.000002   0.000034
   10  SI 1  S   -0.000000  -0.042373  -1.421333  -0.000017  -0.000323
   11  SI 1  X   -0.036530  -0.000000  -0.000006   0.765163  -0.009206
   12  SI 1  Y   -0.000468  -0.000000  -0.000157   0.009202   0.765210
   13  SI 1  Z    0.000000   0.092674   1.617475   0.000019   0.000411
   14  SI 1 XX    0.000691   0.033248  -0.034569   0.000609   0.050641
   15  SI 1 YY   -0.000691   0.033250  -0.034546  -0.000609  -0.050658
   16  SI 1 ZZ    0.000000  -0.078617   0.052142   0.000001   0.000016
   17  SI 1 XY    0.062308   0.000000  -0.000001   0.058486  -0.000703
   18  SI 1 XZ   -0.047878  -0.000000   0.000001  -0.094522   0.001137
   19  SI 1 YZ   -0.000614  -0.000003   0.000025  -0.001137  -0.094526
   20  SI 2  S   -0.000000  -0.007936   0.019290   0.000000   0.000003
   21  SI 2  S    0.000000   0.032951  -0.102429  -0.000001  -0.000018
   22  SI 2  X   -0.113413  -0.000000   0.000000  -0.046912   0.000564
   23  SI 2  Y   -0.001454  -0.000001   0.000012  -0.000565  -0.046908
   24  SI 2  Z   -0.000000   0.159877  -0.069800  -0.000001  -0.000016
   25  SI 2  S   -0.000000  -0.108338   0.205141   0.000002   0.000031
   26  SI 2  X    0.291992   0.000000  -0.000001   0.141987  -0.001708
   27  SI 2  Y    0.003744   0.000003  -0.000037   0.001709   0.141979
   28  SI 2  Z    0.000000  -0.430495   0.161524   0.000002   0.000035
   29  SI 2  S    0.000000  -0.042373   1.421331   0.000015   0.000317
   30  SI 2  X    0.036531   0.000000  -0.000006   0.765175  -0.009206
   31  SI 2  Y    0.000469   0.000000  -0.000158   0.009210   0.765199
   32  SI 2  Z    0.000000  -0.092674   1.617477   0.000020   0.000415
   33  SI 2 XX    0.000692   0.033248   0.034569  -0.000609  -0.050641
   34  SI 2 YY   -0.000692   0.033250   0.034546   0.000610   0.050658
   35  SI 2 ZZ    0.000000  -0.078617  -0.052142  -0.000001  -0.000016
   36  SI 2 XY    0.062309  -0.000000   0.000000  -0.058488   0.000704
   37  SI 2 XZ   -0.047879  -0.000000  -0.000001   0.094521  -0.001137
   38  SI 2 YZ   -0.000614  -0.000002  -0.000025   0.001137   0.094526
   39  H  3  S   -0.002479   0.079215  -0.004869  -0.001204  -0.100114
   40  H  3  S   -0.003155   0.111972  -0.043135  -0.008334  -0.692938
   41  H  4  S    0.168752   0.079218  -0.004908   0.087301   0.049005
   42  H  4  S    0.214773   0.111977  -0.043387   0.604217   0.339207
   43  H  5  S   -0.166273   0.079218  -0.004906  -0.086097   0.051091
   44  H  5  S   -0.211618   0.111977  -0.043377  -0.595886   0.353645
   45  H  6  S   -0.002481   0.079215   0.004869   0.001205   0.100114
   46  H  6  S   -0.003157   0.111973   0.043136   0.008341   0.692933
   47  H  7  S   -0.166275   0.079218   0.004906   0.086098  -0.051091
   48  H  7  S   -0.211620   0.111977   0.043378   0.595890  -0.353641
   49  H  8  S    0.168755   0.079218   0.004908  -0.087302  -0.049004
   50  H  8  S    0.214777   0.111976   0.043388  -0.604226  -0.339200

                     21         22         23         24         25
                    0.1985     0.2027     0.2027     0.2671     0.2866
                     A          A          A          A          A   
    1  SI 1  S    0.018452  -0.000001   0.000012  -0.036331   0.041110
    2  SI 1  S   -0.045683   0.000001  -0.000027   0.036124  -0.132158
    3  SI 1  X   -0.000001  -0.031402  -0.000408  -0.000000  -0.000000
    4  SI 1  Y   -0.000020  -0.000409   0.031391   0.000000  -0.000006
    5  SI 1  Z    0.018733  -0.000001   0.000015   0.066738  -0.038676
    6  SI 1  S    0.383433  -0.000012   0.000262  -0.986925   0.764294
    7  SI 1  X    0.000001   0.071577   0.000931   0.000000   0.000000
    8  SI 1  Y    0.000047   0.000931  -0.071541  -0.000000   0.000030
    9  SI 1  Z   -0.193684   0.000005  -0.000132  -0.260172   0.195709
   10  SI 1  S    0.709643  -0.000018   0.000376   1.406560   0.423437
   11  SI 1  X    0.000030   1.732051   0.022539  -0.000002   0.000003
   12  SI 1  Y    0.001011   0.022541  -1.732212  -0.000078  -0.000060
   13  SI 1  Z    0.927611  -0.000024   0.000577   0.407329   0.393916
   14  SI 1 XX   -0.026158   0.000983  -0.075513  -0.054114   0.040645
   15  SI 1 YY   -0.026253  -0.000982   0.075481  -0.054111   0.040641
   16  SI 1 ZZ    0.159811  -0.000004   0.000104  -0.077805   0.073097
   17  SI 1 XY    0.000002   0.087175   0.001134  -0.000000   0.000000
   18  SI 1 XZ    0.000000   0.022857   0.000298  -0.000000   0.000000
   19  SI 1 YZ    0.000016   0.000297  -0.022860  -0.000002   0.000007
   20  SI 2  S    0.018452  -0.000000   0.000012  -0.036331  -0.041110
   21  SI 2  S   -0.045683   0.000001  -0.000025   0.036125   0.132158
   22  SI 2  X    0.000001   0.031402   0.000409  -0.000000  -0.000000
   23  SI 2  Y    0.000020   0.000409  -0.031391  -0.000000  -0.000007
   24  SI 2  Z   -0.018733   0.000001  -0.000015  -0.066738  -0.038676
   25  SI 2  S    0.383435  -0.000010   0.000257  -0.986927  -0.764289
   26  SI 2  X   -0.000001  -0.071577  -0.000931   0.000000   0.000001
   27  SI 2  Y   -0.000047  -0.000931   0.071541   0.000000   0.000034
   28  SI 2  Z    0.193684  -0.000006   0.000133   0.260173   0.195709
   29  SI 2  S    0.709650  -0.000013   0.000363   1.406557  -0.423441
   30  SI 2  X   -0.000028  -1.732040  -0.022545   0.000003  -0.000007
   31  SI 2  Y   -0.001004  -0.022539   1.732224   0.000080  -0.000090
   32  SI 2  Z   -0.927606   0.000024  -0.000576  -0.407326   0.393914
   33  SI 2 XX   -0.026157   0.000983  -0.075514  -0.054114  -0.040645
   34  SI 2 YY   -0.026253  -0.000982   0.075481  -0.054111  -0.040641
   35  SI 2 ZZ    0.159811  -0.000004   0.000103  -0.077805  -0.073096
   36  SI 2 XY    0.000002   0.087174   0.001135  -0.000000   0.000000
   37  SI 2 XZ    0.000001   0.022858   0.000297   0.000000  -0.000000
   38  SI 2 YZ    0.000017   0.000297  -0.022859  -0.000001  -0.000007
   39  H  3  S   -0.044940  -0.000490   0.037735  -0.022538  -0.069564
   40  H  3  S   -0.481188  -0.012351   0.949890  -0.169140  -0.670043
   41  H  4  S   -0.044903   0.032950  -0.018477  -0.022539  -0.069568
   42  H  4  S   -0.480324   0.829012  -0.464669  -0.169201  -0.670070
   43  H  5  S   -0.044905  -0.032457  -0.019328  -0.022539  -0.069568
   44  H  5  S   -0.480353  -0.816623  -0.486079  -0.169200  -0.670072
   45  H  6  S   -0.044940  -0.000491   0.037737  -0.022538   0.069564
   46  H  6  S   -0.481186  -0.012354   0.949906  -0.169135   0.670032
   47  H  7  S   -0.044905  -0.032456  -0.019328  -0.022539   0.069568
   48  H  7  S   -0.480355  -0.816616  -0.486084  -0.169197   0.670074
   49  H  8  S   -0.044904   0.032949  -0.018476  -0.022539   0.069569
   50  H  8  S   -0.480329   0.829002  -0.464661  -0.169200   0.670079

                     26         27         28         29         30
                    0.3426     0.3426     0.3881     0.3896     0.3896
                     A          A          A          A          A   
    1  SI 1  S   -0.000002  -0.000000  -0.003532  -0.000000   0.000001
    2  SI 1  S   -0.000000  -0.000000  -0.115669  -0.000008  -0.000046
    3  SI 1  X    0.002638  -0.193413   0.000012  -0.210078   0.002766
    4  SI 1  Y   -0.193413  -0.002638   0.000051  -0.002766  -0.210079
    5  SI 1  Z    0.000012   0.000001   0.174902   0.000009  -0.000004
    6  SI 1  S   -0.000068  -0.000002  -0.550041  -0.000032  -0.000131
    7  SI 1  X   -0.012384   0.907905  -0.000056   0.978879  -0.012891
    8  SI 1  Y    0.907906   0.012384  -0.000240   0.012890   0.978884
    9  SI 1  Z   -0.000051  -0.000002  -0.733809  -0.000036   0.000055
   10  SI 1  S    0.000169   0.000006   3.099846   0.000192   0.000893
   11  SI 1  X    0.007865  -0.576591   0.000038  -0.651839   0.008583
   12  SI 1  Y   -0.576577  -0.007864   0.000101  -0.008584  -0.651721
   13  SI 1  Z   -0.000024  -0.000001  -0.080790  -0.000006  -0.000080
   14  SI 1 XX   -0.004808  -0.000066   0.016033   0.000455   0.034450
   15  SI 1 YY    0.004800   0.000065   0.016036  -0.000452  -0.034424
   16  SI 1 ZZ   -0.000005  -0.000000  -0.118890  -0.000008  -0.000051
   17  SI 1 XY    0.000076  -0.005549  -0.000002   0.039755  -0.000524
   18  SI 1 XZ    0.001166  -0.085474  -0.000001   0.022664  -0.000299
   19  SI 1 YZ   -0.085476  -0.001166   0.000009   0.000298   0.022668
   20  SI 2  S    0.000002   0.000000   0.003532   0.000000   0.000002
   21  SI 2  S    0.000001   0.000000   0.115668   0.000006  -0.000003
   22  SI 2  X    0.002638  -0.193413  -0.000011   0.210078  -0.002767
   23  SI 2  Y   -0.193413  -0.002638  -0.000026   0.002767   0.210078
   24  SI 2  Z    0.000011   0.000000   0.174903   0.000012   0.000068
   25  SI 2  S    0.000069   0.000003   0.550041   0.000029   0.000061
   26  SI 2  X   -0.012384   0.907906   0.000053  -0.978878   0.012891
   27  SI 2  Y    0.907907   0.012384   0.000118  -0.012891  -0.978883
   28  SI 2  Z   -0.000049  -0.000002  -0.733812  -0.000051  -0.000325
   29  SI 2  S   -0.000171  -0.000007  -3.099840  -0.000166  -0.000220
   30  SI 2  X    0.007864  -0.576595  -0.000040   0.651840  -0.008582
   31  SI 2  Y   -0.576573  -0.007866  -0.000154   0.008584   0.651718
   32  SI 2  Z   -0.000026  -0.000001  -0.080790  -0.000000   0.000062
   33  SI 2 XX    0.004807   0.000066  -0.016045   0.000453   0.034443
   34  SI 2 YY   -0.004800  -0.000065  -0.016023  -0.000454  -0.034430
   35  SI 2 ZZ    0.000006   0.000000   0.118890   0.000006  -0.000008
   36  SI 2 XY   -0.000076   0.005549  -0.000002   0.039755  -0.000524
   37  SI 2 XZ   -0.001166   0.085474  -0.000002   0.022665  -0.000298
   38  SI 2 YZ    0.085476   0.001166  -0.000018   0.000298   0.022667
   39  H  3  S    0.010851   0.000148  -0.053693   0.000215   0.016620
   40  H  3  S   -0.224506  -0.003062  -0.603635  -0.004886  -0.368151
   41  H  4  S   -0.005297  -0.009470  -0.053688  -0.014532  -0.008162
   42  H  4  S    0.109596   0.195943  -0.603819   0.320904   0.179454
   43  H  5  S   -0.005553   0.009322  -0.053689   0.014305  -0.008542
   44  H  5  S    0.114899  -0.192881  -0.603783  -0.316146   0.187843
   45  H  6  S   -0.010851  -0.000148   0.053687   0.000222   0.016640
   46  H  6  S    0.224510   0.003062   0.603759  -0.004815  -0.367931
   47  H  7  S    0.005553  -0.009322   0.053690   0.014311  -0.008522
   48  H  7  S   -0.114900   0.192880   0.603750  -0.316073   0.188068
   49  H  8  S    0.005297   0.009470   0.053692  -0.014526  -0.008142
   50  H  8  S   -0.109595  -0.195941   0.603719   0.320974   0.179676

                     31         32         33         34         35
                    0.4142     0.5319     0.6477     0.6477     0.7639
                     A          A          A          A          A   
    1  SI 1  S    0.006345  -0.028278  -0.000000  -0.000002  -0.009763
    2  SI 1  S   -0.097353  -0.109891  -0.000000  -0.000016   0.019381
    3  SI 1  X    0.000001  -0.000000   0.038121  -0.000507  -0.000000
    4  SI 1  Y    0.000054  -0.000002   0.000507   0.038121  -0.000002
    5  SI 1  Z   -0.149425  -0.150744  -0.000000  -0.000008  -0.069819
    6  SI 1  S   -0.167454  -1.335689  -0.000004  -0.000117  -0.236369
    7  SI 1  X   -0.000006   0.000001  -0.182824   0.002431   0.000000
    8  SI 1  Y   -0.000253   0.000007  -0.002431  -0.182827   0.000012
    9  SI 1  Z    0.787476   0.726236   0.000001   0.000042   0.324625
   10  SI 1  S    1.447712   6.561519   0.000023   0.000688  -0.586606
   11  SI 1  X    0.000001  -0.000000  -0.178670   0.002375   0.000000
   12  SI 1  Y    0.000028  -0.000072  -0.002376  -0.178693   0.000019
   13  SI 1  Z   -0.266228  -2.624372  -0.000008  -0.000223  -0.569065
   14  SI 1 XX    0.027675  -0.099808  -0.003266  -0.245731  -0.352525
   15  SI 1 YY    0.027698  -0.099843   0.003265   0.245699  -0.352551
   16  SI 1 ZZ   -0.093150   0.071414   0.000001   0.000025   0.636439
   17  SI 1 XY   -0.000001   0.000000  -0.283712   0.003770   0.000000
   18  SI 1 XZ   -0.000001   0.000001  -0.611057   0.008123   0.000000
   19  SI 1 YZ   -0.000010   0.000045  -0.008123  -0.611053   0.000024
   20  SI 2  S    0.006345   0.028279   0.000000   0.000002  -0.009763
   21  SI 2  S   -0.097354   0.109890   0.000001   0.000016   0.019381
   22  SI 2  X   -0.000001   0.000000   0.038121  -0.000507   0.000000
   23  SI 2  Y   -0.000055  -0.000001   0.000507   0.038121   0.000002
   24  SI 2  Z    0.149425  -0.150744  -0.000001  -0.000009   0.069819
   25  SI 2  S   -0.167458   1.335690   0.000005   0.000120  -0.236368
   26  SI 2  X    0.000007  -0.000001  -0.182823   0.002430  -0.000001
   27  SI 2  Y    0.000255   0.000002  -0.002430  -0.182828  -0.000014
   28  SI 2  Z   -0.787473   0.726236   0.000003   0.000048  -0.324625
   29  SI 2  S    1.447734  -6.561517  -0.000028  -0.000701  -0.586612
   30  SI 2  X   -0.000000  -0.000004  -0.178666   0.002376  -0.000001
   31  SI 2  Y   -0.000024  -0.000085  -0.002374  -0.178696  -0.000021
   32  SI 2  Z    0.266234  -2.624374  -0.000009  -0.000225   0.569063
   33  SI 2 XX    0.027676   0.099808   0.003268   0.245734  -0.352523
   34  SI 2 YY    0.027696   0.099843  -0.003266  -0.245700  -0.352553
   35  SI 2 ZZ   -0.093151  -0.071414  -0.000001  -0.000027   0.636440
   36  SI 2 XY   -0.000000  -0.000000   0.283708  -0.003774   0.000001
   37  SI 2 XZ    0.000000  -0.000001   0.611058  -0.008123   0.000001
   38  SI 2 YZ   -0.000007  -0.000045   0.008123   0.611053   0.000026
   39  H  3  S   -0.076263  -0.025352  -0.000429  -0.032303  -0.065136
   40  H  3  S   -0.735954  -0.826282   0.004612   0.347093   0.440517
   41  H  4  S   -0.076257  -0.025357   0.028184   0.015771  -0.065139
   42  H  4  S   -0.736200  -0.826288  -0.302974  -0.169714   0.440537
   43  H  5  S   -0.076257  -0.025357  -0.027755   0.016515  -0.065139
   44  H  5  S   -0.736193  -0.826290   0.298352  -0.177708   0.440537
   45  H  6  S   -0.076263   0.025352   0.000430   0.032304  -0.065137
   46  H  6  S   -0.735954   0.826272  -0.004610  -0.347089   0.440517
   47  H  7  S   -0.076257   0.025357   0.027755  -0.016514  -0.065139
   48  H  7  S   -0.736197   0.826290  -0.298348   0.177716   0.440539
   49  H  8  S   -0.076257   0.025357  -0.028184  -0.015770  -0.065139
   50  H  8  S   -0.736205   0.826293   0.302973   0.169720   0.440540

                     36         37         38         39         40
                    0.8221     0.8221     0.8259     0.8259     0.8595
                     A          A          A          A          A   
    1  SI 1  S    0.000000   0.000001  -0.000000   0.000001  -0.000000
    2  SI 1  S   -0.000000  -0.000001   0.000000  -0.000003   0.000000
    3  SI 1  X   -0.007101   0.000079   0.008458   0.000109  -0.000606
    4  SI 1  Y   -0.000079  -0.007099   0.000110  -0.008440   0.043502
    5  SI 1  Z   -0.000000   0.000000  -0.000000   0.000001   0.000001
    6  SI 1  S    0.000000   0.000015   0.000000   0.000010   0.000000
    7  SI 1  X   -0.062833   0.000698   0.054698   0.000708   0.001678
    8  SI 1  Y   -0.000697  -0.062855   0.000710  -0.054748  -0.120461
    9  SI 1  Z    0.000000  -0.000003   0.000000  -0.000006  -0.000005
   10  SI 1  S   -0.000002  -0.000077  -0.000001  -0.000026   0.000011
   11  SI 1  X   -0.599397   0.006659   1.080460   0.014001   0.000107
   12  SI 1  Y   -0.006621  -0.599541   0.014022  -1.080495  -0.007620
   13  SI 1  Z   -0.000001  -0.000009   0.000000   0.000003   0.000006
   14  SI 1 XX    0.006050   0.546584  -0.007923   0.610890   0.143706
   15  SI 1 YY   -0.006051  -0.546604   0.007923  -0.610879  -0.143678
   16  SI 1 ZZ    0.000001   0.000016   0.000001  -0.000015  -0.000027
   17  SI 1 XY    0.631076  -0.007011  -0.705403  -0.009127  -0.002310
   18  SI 1 XZ   -0.271649   0.003022   0.098105   0.001259  -0.009819
   19  SI 1 YZ   -0.003017  -0.271685   0.001272  -0.097883   0.705119
   20  SI 2  S   -0.000000  -0.000001  -0.000000   0.000001   0.000000
   21  SI 2  S    0.000000   0.000002   0.000000  -0.000003   0.000001
   22  SI 2  X   -0.007102   0.000079  -0.008458  -0.000110   0.000606
   23  SI 2  Y   -0.000079  -0.007097  -0.000110   0.008441  -0.043502
   24  SI 2  Z    0.000000   0.000000   0.000000  -0.000001  -0.000001
   25  SI 2  S   -0.000001  -0.000016  -0.000001   0.000013   0.000003
   26  SI 2  X   -0.062837   0.000700  -0.054689  -0.000714  -0.001677
   27  SI 2  Y   -0.000701  -0.062851  -0.000710   0.054757   0.120461
   28  SI 2  Z   -0.000000  -0.000004  -0.000000   0.000007   0.000005
   29  SI 2  S    0.000003   0.000082   0.000004  -0.000041  -0.000006
   30  SI 2  X   -0.599517   0.006679  -1.080388  -0.014055  -0.000105
   31  SI 2  Y   -0.006715  -0.599427  -0.014031   1.080563   0.007615
   32  SI 2  Z   -0.000001  -0.000009   0.000000  -0.000004  -0.000011
   33  SI 2 XX   -0.006109  -0.546519  -0.007938   0.610948   0.143702
   34  SI 2 YY    0.006109   0.546537   0.007938  -0.610940  -0.143674
   35  SI 2 ZZ   -0.000000  -0.000014   0.000000  -0.000013  -0.000028
   36  SI 2 XY   -0.631155   0.007030  -0.705331  -0.009189  -0.002311
   37  SI 2 XZ    0.271666  -0.003022   0.098069   0.001283  -0.009819
   38  SI 2 YZ    0.003027   0.271670   0.001275  -0.097915   0.705120
   39  H  3  S   -0.002673  -0.241116   0.002648  -0.204072   0.176104
   40  H  3  S    0.011265   1.017068  -0.013929   1.073671  -0.226078
   41  H  4  S    0.210126   0.118220  -0.178128   0.099738  -0.085924
   42  H  4  S   -0.886292  -0.498689   0.936892  -0.524778   0.110306
   43  H  5  S   -0.207455   0.122863   0.175480   0.104308  -0.090170
   44  H  5  S    0.875030  -0.518265  -0.922962  -0.548841   0.115756
   45  H  6  S    0.002692   0.241093   0.002654  -0.204099   0.176106
   46  H  6  S   -0.011363  -1.016952  -0.013952   1.073790  -0.226082
   47  H  7  S    0.207468  -0.122852   0.175455   0.104338  -0.090172
   48  H  7  S   -0.875090   0.518221  -0.922850  -0.548972   0.115765
   49  H  8  S   -0.210158  -0.118205  -0.178106   0.099730  -0.085924
   50  H  8  S    0.886448   0.498609   0.936797  -0.524748   0.110310

                     41         42         43         44         45
                    0.8595     1.0348     1.2893     1.4091     1.4091
                     A          A          A          A          A   
    1  SI 1  S   -0.000000   0.020639  -0.025856  -0.000000   0.000001
    2  SI 1  S   -0.000000  -0.084829   0.097651   0.000000  -0.000002
    3  SI 1  X    0.043497   0.000000   0.000000  -0.075110  -0.001209
    4  SI 1  Y    0.000606   0.000002   0.000001  -0.001209   0.075111
    5  SI 1  Z    0.000000   0.065294   0.002791   0.000000  -0.000001
    6  SI 1  S   -0.000000   0.439207  -0.668287  -0.000003   0.000031
    7  SI 1  X   -0.120469  -0.000000  -0.000000   0.248369   0.003997
    8  SI 1  Y   -0.001678  -0.000001  -0.000010   0.003998  -0.248368
    9  SI 1  Z   -0.000000  -0.358100   0.137031  -0.000002  -0.000002
   10  SI 1  S    0.000004  -1.443224   1.510546   0.000014  -0.000097
   11  SI 1  X   -0.007957  -0.000001  -0.000001  -0.442286  -0.007118
   12  SI 1  Y   -0.000109   0.000043  -0.000070  -0.007118   0.442362
   13  SI 1  Z   -0.000000  -0.218021   0.245952  -0.000002  -0.000007
   14  SI 1 XX    0.002002  -0.397704   0.068072  -0.004304   0.267399
   15  SI 1 YY   -0.002001  -0.397682   0.068016   0.004302  -0.267405
   16  SI 1 ZZ   -0.000001   0.600342   0.253163   0.000003  -0.000012
   17  SI 1 XY    0.166120   0.000000   0.000001  -0.308807  -0.004968
   18  SI 1 XZ    0.705100   0.000001  -0.000000   0.351981   0.005664
   19  SI 1 YZ    0.009819   0.000032  -0.000013   0.005665  -0.351995
   20  SI 2  S    0.000000  -0.020640  -0.025856  -0.000000   0.000001
   21  SI 2  S    0.000000   0.084829   0.097651   0.000000  -0.000003
   22  SI 2  X   -0.043497   0.000000   0.000000   0.075109   0.001208
   23  SI 2  Y   -0.000606   0.000002  -0.000001   0.001208  -0.075112
   24  SI 2  Z   -0.000000   0.065294  -0.002791   0.000001  -0.000002
   25  SI 2  S    0.000001  -0.439208  -0.668287   0.000000   0.000024
   26  SI 2  X    0.120469   0.000000   0.000000  -0.248367  -0.003995
   27  SI 2  Y    0.001677   0.000000   0.000010  -0.003994   0.248371
   28  SI 2  Z    0.000000  -0.358101  -0.137031  -0.000002   0.000014
   29  SI 2  S   -0.000003   1.443225   1.510546  -0.000009  -0.000036
   30  SI 2  X    0.007964   0.000003   0.000003   0.442283   0.007116
   31  SI 2  Y    0.000112   0.000055   0.000076   0.007114  -0.442367
   32  SI 2  Z   -0.000001  -0.218020  -0.245950  -0.000003   0.000019
   33  SI 2 XX    0.002006   0.397707   0.068073  -0.004300   0.267394
   34  SI 2 YY   -0.002004   0.397679   0.068014   0.004304  -0.267414
   35  SI 2 ZZ   -0.000001  -0.600342   0.253163  -0.000003   0.000005
   36  SI 2 XY    0.166125   0.000001   0.000001  -0.308808  -0.004967
   37  SI 2 XZ    0.705098  -0.000001  -0.000000   0.351980   0.005662
   38  SI 2 YZ    0.009818  -0.000034  -0.000014   0.005661  -0.351998
   39  H  3  S    0.002452  -0.323565   0.575953  -0.012937   0.804005
   40  H  3  S   -0.003146   0.833622  -1.009458   0.011248  -0.699181
   41  H  4  S   -0.153673  -0.323577   0.575924   0.702783  -0.390834
   42  H  4  S    0.197076   0.833687  -1.009503  -0.611144   0.339923
   43  H  5  S    0.151222  -0.323577   0.575925  -0.689838  -0.413243
   44  H  5  S   -0.193932   0.833687  -1.009503   0.599881   0.359411
   45  H  6  S    0.002451   0.323565   0.575952  -0.012932   0.804025
   46  H  6  S   -0.003142  -0.833615  -1.009453   0.011247  -0.699208
   47  H  7  S    0.151219   0.323577   0.575925  -0.689843  -0.413232
   48  H  7  S   -0.193922  -0.833689  -1.009503   0.599888   0.359395
   49  H  8  S   -0.153670   0.323578   0.575925   0.702772  -0.390831
   50  H  8  S    0.197065  -0.833693  -1.009506  -0.611129   0.339913

                     46         47         48         49         50
                    1.4325     1.4584     1.4584     2.6155     2.6868
                     A          A          A          A          A   
    1  SI 1  S    0.008590   0.000001   0.000000   0.101026   0.100408
    2  SI 1  S    0.022676   0.000003   0.000000  -0.474677  -0.476338
    3  SI 1  X   -0.000001  -0.001031   0.081464   0.000000  -0.000000
    4  SI 1  Y   -0.000008   0.081468   0.001030  -0.000000  -0.000000
    5  SI 1  Z   -0.108286  -0.000007  -0.000000   0.014182  -0.023978
    6  SI 1  S    0.430383   0.000041   0.000002   4.151927   4.230913
    7  SI 1  X    0.000002   0.003481  -0.275148   0.000000   0.000000
    8  SI 1  Y    0.000032  -0.275162  -0.003480   0.000000  -0.000000
    9  SI 1  Z    0.444988   0.000028   0.000001   0.014351   0.079341
   10  SI 1  S   -3.071250  -0.000277  -0.000011   0.053110   0.647958
   11  SI 1  X   -0.000003  -0.003838   0.303305  -0.000000   0.000000
   12  SI 1  Y    0.000023   0.303326   0.003838  -0.000013  -0.000014
   13  SI 1  Z    0.614395   0.000059   0.000002   0.037660  -0.230853
   14  SI 1 XX    0.283192   0.324019   0.004097  -1.831722  -1.814877
   15  SI 1 YY    0.283262  -0.323986  -0.004096  -1.831727  -1.814878
   16  SI 1 ZZ   -0.706616  -0.000047  -0.000002  -1.713925  -1.931680
   17  SI 1 XY   -0.000002  -0.004731   0.374150   0.000000   0.000000
   18  SI 1 XZ    0.000002   0.002997  -0.236820   0.000000  -0.000000
   19  SI 1 YZ    0.000008  -0.236824  -0.002996   0.000002  -0.000004
   20  SI 2  S   -0.008590  -0.000001  -0.000000   0.101026  -0.100408
   21  SI 2  S   -0.022676  -0.000003  -0.000000  -0.474678   0.476338
   22  SI 2  X    0.000000  -0.001030   0.081464   0.000000  -0.000000
   23  SI 2  Y   -0.000006   0.081468   0.001030   0.000000  -0.000000
   24  SI 2  Z   -0.108286  -0.000007  -0.000000  -0.014182  -0.023978
   25  SI 2  S   -0.430384  -0.000041  -0.000002   4.151929  -4.230910
   26  SI 2  X   -0.000000   0.003477  -0.275148  -0.000000  -0.000000
   27  SI 2  Y    0.000027  -0.275160  -0.003478  -0.000000  -0.000000
   28  SI 2  Z    0.444987   0.000027   0.000001  -0.014351   0.079341
   29  SI 2  S    3.071250   0.000278   0.000011   0.053111  -0.647958
   30  SI 2  X    0.000004  -0.003832   0.303303   0.000000  -0.000001
   31  SI 2  Y    0.000043   0.303324   0.003832   0.000013  -0.000017
   32  SI 2  Z    0.614396   0.000059   0.000002  -0.037660  -0.230854
   33  SI 2 XX   -0.283196  -0.324015  -0.004098  -1.831723   1.814876
   34  SI 2 YY   -0.283258   0.323981   0.004097  -1.831729   1.814877
   35  SI 2 ZZ    0.706617   0.000047   0.000002  -1.713926   1.931679
   36  SI 2 XY    0.000000   0.004729  -0.374154   0.000000  -0.000000
   37  SI 2 XZ    0.000001  -0.002992   0.236820   0.000000   0.000000
   38  SI 2 YZ    0.000001   0.236821   0.002993   0.000002   0.000004
   39  H  3  S   -0.496440   0.820315   0.010373   0.149904   0.103637
   40  H  3  S    0.891488  -0.707843  -0.008950  -0.185906  -0.225614
   41  H  4  S   -0.496343  -0.401221  -0.715624   0.149905   0.103638
   42  H  4  S    0.891440   0.346279   0.617538  -0.185917  -0.225624
   43  H  5  S   -0.496351  -0.419194   0.705247   0.149905   0.103638
   44  H  5  S    0.891448   0.361788  -0.608579  -0.185917  -0.225624
   45  H  6  S    0.496421  -0.820307  -0.010368   0.149904  -0.103637
   46  H  6  S   -0.891466   0.707837   0.008945  -0.185906   0.225612
   47  H  7  S    0.496355   0.419182  -0.705252   0.149906  -0.103638
   48  H  7  S   -0.891452  -0.361779   0.608582  -0.185917   0.225624
   49  H  8  S    0.496359   0.401225   0.715625   0.149906  -0.103638
   50  H  8  S   -0.891458  -0.346283  -0.617536  -0.185918   0.225625

  ----- BETA SET ----- 

          ------------
          EIGENVECTORS
          ------------

                      1          2          3          4          5
                  -68.7688   -68.7688    -6.1271    -6.1270    -4.2328
                     A          A          A          A          A   
    1  SI 1  S   -0.701435   0.708324  -0.189598  -0.189694   0.000000
    2  SI 1  S   -0.008765   0.008864   0.728450   0.728870  -0.000000
    3  SI 1  X    0.000000  -0.000000   0.000000   0.000000   0.703135
    4  SI 1  Y   -0.000000   0.000000   0.000000   0.000000   0.009847
    5  SI 1  Z    0.000002  -0.000011  -0.000002   0.000005   0.000008
    6  SI 1  S    0.012032  -0.011807   0.005323   0.005484   0.000000
    7  SI 1  X   -0.000000  -0.000000   0.000000   0.000000   0.013431
    8  SI 1  Y   -0.000000  -0.000000   0.000000   0.000000   0.000188
    9  SI 1  Z   -0.000126  -0.000062  -0.000095  -0.000144   0.000000
   10  SI 1  S   -0.001656   0.001198  -0.001594  -0.003413  -0.000000
   11  SI 1  X    0.000000  -0.000000  -0.000000  -0.000000  -0.002703
   12  SI 1  Y   -0.000000   0.000000  -0.000000   0.000000  -0.000038
   13  SI 1  Z    0.000310  -0.000056   0.000099   0.000937  -0.000000
   14  SI 1 XX   -0.004168   0.004187   0.001119   0.001119  -0.000006
   15  SI 1 YY   -0.004168   0.004187   0.001119   0.001119   0.000006
   16  SI 1 ZZ   -0.004191   0.004169   0.001030   0.001130  -0.000000
   17  SI 1 XY    0.000000   0.000000   0.000000   0.000000  -0.000465
   18  SI 1 XZ   -0.000000  -0.000000   0.000000   0.000000   0.000471
   19  SI 1 YZ   -0.000000  -0.000000   0.000000   0.000000   0.000007
   20  SI 2  S    0.708318   0.701441  -0.189680   0.189612  -0.000000
   21  SI 2  S    0.008851   0.008778   0.728764  -0.728556   0.000000
   22  SI 2  X    0.000000   0.000000  -0.000000   0.000000   0.703805
   23  SI 2  Y   -0.000000  -0.000000  -0.000000   0.000000   0.009878
   24  SI 2  Z    0.000002   0.000011   0.000002   0.000005  -0.000010
   25  SI 2  S   -0.012147  -0.011689   0.005325  -0.005481  -0.000000
   26  SI 2  X   -0.000000   0.000000  -0.000000   0.000000   0.013444
   27  SI 2  Y   -0.000000   0.000000  -0.000000   0.000000   0.000189
   28  SI 2  Z   -0.000125   0.000063   0.000095  -0.000144  -0.000000
   29  SI 2  S    0.001668   0.001182  -0.001596   0.003412   0.000000
   30  SI 2  X   -0.000000  -0.000000   0.000000  -0.000000  -0.002706
   31  SI 2  Y   -0.000000  -0.000000   0.000000   0.000000  -0.000038
   32  SI 2  Z    0.000311   0.000053  -0.000100   0.000937   0.000000
   33  SI 2 XX    0.004209   0.004146   0.001119  -0.001119   0.000006
   34  SI 2 YY    0.004209   0.004146   0.001119  -0.001119  -0.000006
   35  SI 2 ZZ    0.004231   0.004128   0.001031  -0.001130   0.000000
   36  SI 2 XY    0.000000   0.000000   0.000000  -0.000000   0.000465
   37  SI 2 XZ    0.000000  -0.000000   0.000000  -0.000000  -0.000471
   38  SI 2 YZ    0.000000  -0.000000   0.000000  -0.000000  -0.000007
   39  H  3  S    0.000029  -0.000040   0.000214   0.000245   0.000008
   40  H  3  S   -0.000145   0.000093   0.000050   0.000080  -0.000007
   41  H  4  S    0.000029  -0.000040   0.000214   0.000245  -0.000484
   42  H  4  S   -0.000145   0.000093   0.000050   0.000080   0.000415
   43  H  5  S    0.000029  -0.000040   0.000214   0.000245   0.000476
   44  H  5  S   -0.000145   0.000093   0.000050   0.000080  -0.000408
   45  H  6  S   -0.000029  -0.000039   0.000214  -0.000245  -0.000008
   46  H  6  S    0.000146   0.000091   0.000050  -0.000080   0.000007
   47  H  7  S   -0.000029  -0.000039   0.000214  -0.000245  -0.000477
   48  H  7  S    0.000146   0.000091   0.000050  -0.000080   0.000408
   49  H  8  S   -0.000029  -0.000039   0.000214  -0.000245   0.000485
   50  H  8  S    0.000146   0.000091   0.000050  -0.000080  -0.000415

                      6          7          8          9         10
                   -4.2328    -4.2327    -4.2327    -4.2327    -4.2321
                     A          A          A          A          A   
    1  SI 1  S    0.000000   0.000052   0.000000   0.000000   0.000033
    2  SI 1  S   -0.000000  -0.000190  -0.000000  -0.000000  -0.000278
    3  SI 1  X   -0.009869   0.000028   0.703755  -0.009384   0.000000
    4  SI 1  Y    0.703213  -0.000189   0.009407   0.703677   0.000013
    5  SI 1  Z   -0.000049  -0.703314   0.000017  -0.000153   0.703693
    6  SI 1  S    0.000000   0.000190  -0.000000   0.000000  -0.000363
    7  SI 1  X   -0.000189   0.000001   0.013927  -0.000186   0.000000
    8  SI 1  Y    0.013432  -0.000004   0.000186   0.013925   0.000000
    9  SI 1  Z   -0.000001  -0.013363   0.000000  -0.000003   0.014371
   10  SI 1  S   -0.000001  -0.001109   0.000000  -0.000000   0.003718
   11  SI 1  X    0.000038  -0.000000  -0.003294   0.000044   0.000000
   12  SI 1  Y   -0.002703   0.000001  -0.000044  -0.003293  -0.000000
   13  SI 1  Z    0.000000   0.003143  -0.000000   0.000001  -0.004706
   14  SI 1 XX   -0.000403  -0.000226  -0.000006  -0.000431   0.000180
   15  SI 1 YY    0.000403  -0.000226   0.000006   0.000431   0.000180
   16  SI 1 ZZ   -0.000000   0.000331  -0.000000  -0.000000  -0.001107
   17  SI 1 XY    0.000007  -0.000000  -0.000497   0.000007  -0.000000
   18  SI 1 XZ   -0.000007   0.000000   0.000056  -0.000001   0.000000
   19  SI 1 YZ    0.000471  -0.000000   0.000001   0.000056   0.000000
   20  SI 2  S   -0.000000   0.000052   0.000000   0.000000  -0.000033
   21  SI 2  S    0.000000  -0.000190  -0.000000  -0.000000   0.000278
   22  SI 2  X   -0.009855  -0.000008  -0.703085   0.009399   0.000001
   23  SI 2  Y    0.703726   0.000113  -0.009376  -0.703163   0.000009
   24  SI 2  Z    0.000028   0.703379  -0.000016   0.000149   0.703628
   25  SI 2  S   -0.000000   0.000190  -0.000000   0.000000   0.000363
   26  SI 2  X   -0.000188  -0.000000  -0.013914   0.000186   0.000000
   27  SI 2  Y    0.013443   0.000002  -0.000186  -0.013915   0.000000
   28  SI 2  Z    0.000001   0.013365  -0.000000   0.000003   0.014370
   29  SI 2  S    0.000000  -0.001109   0.000000  -0.000000  -0.003717
   30  SI 2  X    0.000038   0.000000   0.003291  -0.000044  -0.000000
   31  SI 2  Y   -0.002705  -0.000001   0.000044   0.003291  -0.000000
   32  SI 2  Z   -0.000000  -0.003143   0.000000  -0.000001  -0.004705
   33  SI 2 XX    0.000403  -0.000226  -0.000006  -0.000431  -0.000180
   34  SI 2 YY   -0.000403  -0.000226   0.000006   0.000430  -0.000180
   35  SI 2 ZZ    0.000000   0.000331  -0.000000  -0.000000   0.001106
   36  SI 2 XY   -0.000007  -0.000000  -0.000497   0.000007   0.000000
   37  SI 2 XZ    0.000007  -0.000000   0.000056  -0.000001  -0.000000
   38  SI 2 YZ   -0.000471  -0.000000   0.000001   0.000056  -0.000000
   39  H  3  S    0.000555  -0.000310   0.000007   0.000545   0.000208
   40  H  3  S   -0.000475   0.000932  -0.000009  -0.000667  -0.000330
   41  H  4  S   -0.000271  -0.000309  -0.000476  -0.000267   0.000208
   42  H  4  S    0.000232   0.000932   0.000582   0.000326  -0.000330
   43  H  5  S   -0.000284  -0.000309   0.000469  -0.000279   0.000208
   44  H  5  S    0.000243   0.000932  -0.000573   0.000341  -0.000330
   45  H  6  S   -0.000555  -0.000310   0.000007   0.000545  -0.000208
   46  H  6  S    0.000475   0.000932  -0.000009  -0.000666   0.000330
   47  H  7  S    0.000284  -0.000309   0.000468  -0.000279  -0.000208
   48  H  7  S   -0.000244   0.000932  -0.000573   0.000341   0.000330
   49  H  8  S    0.000271  -0.000309  -0.000476  -0.000266  -0.000208
   50  H  8  S   -0.000232   0.000932   0.000582   0.000326   0.000330

                     11         12         13         14         15
                   -0.7549    -0.6763    -0.4973    -0.4973    -0.4702
                     A          A          A          A          A   
    1  SI 1  S    0.039434   0.035228   0.000000   0.000000   0.000000
    2  SI 1  S   -0.191222  -0.172372  -0.000001  -0.000000  -0.000000
    3  SI 1  X    0.000000  -0.000000   0.001500  -0.118111   0.001454
    4  SI 1  Y    0.000001   0.000000  -0.118109  -0.001501  -0.113416
    5  SI 1  Z    0.015139  -0.045826   0.000001  -0.000000  -0.000002
    6  SI 1  S    0.378669   0.345354   0.000003   0.000000   0.000002
    7  SI 1  X   -0.000000   0.000000  -0.003808   0.299777  -0.003744
    8  SI 1  Y   -0.000002  -0.000000   0.299772   0.003810   0.291996
    9  SI 1  Z   -0.041410   0.114562  -0.000002   0.000000   0.000004
   10  SI 1  S    0.078405   0.084582  -0.000004  -0.000000  -0.000002
   11  SI 1  X    0.000000  -0.000000  -0.000587   0.046181  -0.000468
   12  SI 1  Y    0.000001   0.000000   0.046176   0.000587   0.036528
   13  SI 1  Z   -0.007185  -0.002995   0.000001   0.000000   0.000000
   14  SI 1 XX    0.014707   0.028382  -0.049150  -0.000624  -0.053958
   15  SI 1 YY    0.014709   0.028385   0.049150   0.000624   0.053959
   16  SI 1 ZZ    0.024322  -0.022496  -0.000000  -0.000000  -0.000001
   17  SI 1 XY   -0.000000  -0.000000   0.000721  -0.056758   0.000799
   18  SI 1 XZ    0.000000  -0.000000  -0.000414   0.032582  -0.000614
   19  SI 1 YZ    0.000000  -0.000001   0.032583   0.000414   0.047880
   20  SI 2  S    0.039434  -0.035228  -0.000000  -0.000000   0.000000
   21  SI 2  S   -0.191222   0.172372   0.000001   0.000000  -0.000001
   22  SI 2  X   -0.000000   0.000000   0.001501  -0.118109  -0.001454
   23  SI 2  Y   -0.000001   0.000000  -0.118112  -0.001500   0.113413
   24  SI 2  Z   -0.015139  -0.045826   0.000001   0.000000   0.000002
   25  SI 2  S    0.378669  -0.345354  -0.000003  -0.000000   0.000002
   26  SI 2  X    0.000000  -0.000000  -0.003810   0.299772   0.003742
   27  SI 2  Y    0.000002  -0.000000   0.299780   0.003808  -0.291989
   28  SI 2  Z    0.041410   0.114562  -0.000002  -0.000000  -0.000004
   29  SI 2  S    0.078405  -0.084581   0.000004   0.000000  -0.000002
   30  SI 2  X   -0.000000   0.000000  -0.000587   0.046180   0.000468
   31  SI 2  Y   -0.000001   0.000001   0.046177   0.000587  -0.036526
   32  SI 2  Z    0.007185  -0.002995   0.000000  -0.000000  -0.000000
   33  SI 2 XX    0.014707  -0.028381   0.049151   0.000625  -0.053956
   34  SI 2 YY    0.014710  -0.028386  -0.049151  -0.000625   0.053958
   35  SI 2 ZZ    0.024322   0.022496  -0.000000  -0.000000  -0.000001
   36  SI 2 XY   -0.000000   0.000000  -0.000722   0.056757   0.000799
   37  SI 2 XZ   -0.000000   0.000000   0.000414  -0.032581  -0.000614
   38  SI 2 YZ    0.000000   0.000001  -0.032584  -0.000414   0.047879
   39  H  3  S    0.087529   0.110619   0.182667   0.002321   0.193431
   40  H  3  S    0.065227   0.097222   0.213126   0.002708   0.246178
   41  H  4  S    0.087528   0.110617  -0.089326  -0.159359  -0.094567
   42  H  4  S    0.065227   0.097220  -0.104218  -0.185934  -0.120352
   43  H  5  S    0.087528   0.110617  -0.093344   0.157038  -0.098862
   44  H  5  S    0.065227   0.097220  -0.108906   0.183225  -0.125819
   45  H  6  S    0.087529  -0.110619  -0.182672  -0.002320   0.193426
   46  H  6  S    0.065227  -0.097222  -0.213132  -0.002707   0.246172
   47  H  7  S    0.087528  -0.110617   0.093348  -0.157035  -0.098860
   48  H  7  S    0.065227  -0.097220   0.108911  -0.183223  -0.125816
   49  H  8  S    0.087528  -0.110617   0.089327   0.159356  -0.094565
   50  H  8  S    0.065227  -0.097220   0.104219   0.185930  -0.120350

                     16         17         18         19         20
                   -0.4702    -0.4032     0.1350     0.1414     0.1414
                     A          A          A          A          A   
    1  SI 1  S   -0.000000  -0.007936  -0.019290  -0.000000  -0.000003
    2  SI 1  S    0.000000   0.032951   0.102429   0.000001   0.000018
    3  SI 1  X    0.113412   0.000000   0.000000  -0.046911   0.000564
    4  SI 1  Y    0.001454   0.000001   0.000012  -0.000564  -0.046909
    5  SI 1  Z    0.000000  -0.159877  -0.069800  -0.000001  -0.000015
    6  SI 1  S   -0.000000  -0.108338  -0.205142  -0.000002  -0.000032
    7  SI 1  X   -0.291987  -0.000000  -0.000001   0.141986  -0.001708
    8  SI 1  Y   -0.003742  -0.000003  -0.000037   0.001708   0.141981
    9  SI 1  Z   -0.000000   0.430495   0.161524   0.000002   0.000034
   10  SI 1  S   -0.000000  -0.042373  -1.421333  -0.000017  -0.000323
   11  SI 1  X   -0.036530  -0.000000  -0.000006   0.765163  -0.009206
   12  SI 1  Y   -0.000468  -0.000000  -0.000157   0.009202   0.765210
   13  SI 1  Z    0.000000   0.092674   1.617475   0.000019   0.000411
   14  SI 1 XX    0.000691   0.033248  -0.034569   0.000609   0.050641
   15  SI 1 YY   -0.000691   0.033250  -0.034546  -0.000609  -0.050658
   16  SI 1 ZZ    0.000000  -0.078617   0.052142   0.000001   0.000016
   17  SI 1 XY    0.062308   0.000000  -0.000001   0.058486  -0.000703
   18  SI 1 XZ   -0.047878  -0.000000   0.000001  -0.094522   0.001137
   19  SI 1 YZ   -0.000614  -0.000003   0.000025  -0.001137  -0.094526
   20  SI 2  S   -0.000000  -0.007936   0.019290   0.000000   0.000003
   21  SI 2  S    0.000000   0.032951  -0.102429  -0.000001  -0.000018
   22  SI 2  X   -0.113413  -0.000000   0.000000  -0.046912   0.000564
   23  SI 2  Y   -0.001454  -0.000001   0.000012  -0.000565  -0.046908
   24  SI 2  Z   -0.000000   0.159877  -0.069800  -0.000001  -0.000016
   25  SI 2  S   -0.000000  -0.108338   0.205141   0.000002   0.000031
   26  SI 2  X    0.291992   0.000000  -0.000001   0.141987  -0.001708
   27  SI 2  Y    0.003744   0.000003  -0.000037   0.001709   0.141979
   28  SI 2  Z    0.000000  -0.430495   0.161524   0.000002   0.000035
   29  SI 2  S    0.000000  -0.042373   1.421331   0.000015   0.000317
   30  SI 2  X    0.036531   0.000000  -0.000006   0.765175  -0.009206
   31  SI 2  Y    0.000469   0.000000  -0.000158   0.009210   0.765199
   32  SI 2  Z    0.000000  -0.092674   1.617477   0.000020   0.000415
   33  SI 2 XX    0.000692   0.033248   0.034569  -0.000609  -0.050641
   34  SI 2 YY   -0.000692   0.033250   0.034546   0.000610   0.050658
   35  SI 2 ZZ    0.000000  -0.078617  -0.052142  -0.000001  -0.000016
   36  SI 2 XY    0.062309  -0.000000   0.000000  -0.058488   0.000704
   37  SI 2 XZ   -0.047879  -0.000000  -0.000001   0.094521  -0.001137
   38  SI 2 YZ   -0.000614  -0.000002  -0.000025   0.001137   0.094526
   39  H  3  S   -0.002479   0.079215  -0.004869  -0.001204  -0.100114
   40  H  3  S   -0.003155   0.111972  -0.043135  -0.008334  -0.692938
   41  H  4  S    0.168752   0.079218  -0.004908   0.087301   0.049005
   42  H  4  S    0.214773   0.111977  -0.043387   0.604217   0.339207
   43  H  5  S   -0.166273   0.079218  -0.004906  -0.086097   0.051091
   44  H  5  S   -0.211618   0.111977  -0.043377  -0.595886   0.353645
   45  H  6  S   -0.002481   0.079215   0.004869   0.001205   0.100114
   46  H  6  S   -0.003157   0.111973   0.043136   0.008341   0.692933
   47  H  7  S   -0.166275   0.079218   0.004906   0.086098  -0.051091
   48  H  7  S   -0.211620   0.111977   0.043378   0.595890  -0.353641
   49  H  8  S    0.168755   0.079218   0.004908  -0.087302  -0.049004
   50  H  8  S    0.214777   0.111976   0.043388  -0.604226  -0.339200

                     21         22         23         24         25
                    0.1985     0.2027     0.2027     0.2671     0.2866
                     A          A          A          A          A   
    1  SI 1  S    0.018452  -0.000001   0.000012  -0.036331   0.041110
    2  SI 1  S   -0.045683   0.000001  -0.000027   0.036124  -0.132158
    3  SI 1  X   -0.000001  -0.031402  -0.000408  -0.000000  -0.000000
    4  SI 1  Y   -0.000020  -0.000409   0.031391   0.000000  -0.000006
    5  SI 1  Z    0.018733  -0.000001   0.000015   0.066738  -0.038676
    6  SI 1  S    0.383433  -0.000012   0.000262  -0.986925   0.764294
    7  SI 1  X    0.000001   0.071577   0.000931   0.000000   0.000000
    8  SI 1  Y    0.000047   0.000931  -0.071541  -0.000000   0.000030
    9  SI 1  Z   -0.193684   0.000005  -0.000132  -0.260172   0.195709
   10  SI 1  S    0.709643  -0.000018   0.000376   1.406560   0.423437
   11  SI 1  X    0.000030   1.732051   0.022539  -0.000002   0.000003
   12  SI 1  Y    0.001011   0.022541  -1.732212  -0.000078  -0.000060
   13  SI 1  Z    0.927611  -0.000024   0.000577   0.407329   0.393916
   14  SI 1 XX   -0.026158   0.000983  -0.075513  -0.054114   0.040645
   15  SI 1 YY   -0.026253  -0.000982   0.075481  -0.054111   0.040641
   16  SI 1 ZZ    0.159811  -0.000004   0.000104  -0.077805   0.073097
   17  SI 1 XY    0.000002   0.087175   0.001134  -0.000000   0.000000
   18  SI 1 XZ    0.000000   0.022857   0.000298  -0.000000   0.000000
   19  SI 1 YZ    0.000016   0.000297  -0.022860  -0.000002   0.000007
   20  SI 2  S    0.018452  -0.000000   0.000012  -0.036331  -0.041110
   21  SI 2  S   -0.045683   0.000001  -0.000025   0.036125   0.132158
   22  SI 2  X    0.000001   0.031402   0.000409  -0.000000  -0.000000
   23  SI 2  Y    0.000020   0.000409  -0.031391  -0.000000  -0.000007
   24  SI 2  Z   -0.018733   0.000001  -0.000015  -0.066738  -0.038676
   25  SI 2  S    0.383435  -0.000010   0.000257  -0.986927  -0.764289
   26  SI 2  X   -0.000001  -0.071577  -0.000931   0.000000   0.000001
   27  SI 2  Y   -0.000047  -0.000931   0.071541   0.000000   0.000034
   28  SI 2  Z    0.193684  -0.000006   0.000133   0.260173   0.195709
   29  SI 2  S    0.709650  -0.000013   0.000363   1.406557  -0.423441
[...]
    6  SI 1  S    0.363144   0.000089  -0.002158  -0.995244  -0.783101
    7  SI 1  X   -0.000011   0.069393   0.000874  -0.000001  -0.000013
    8  SI 1  Y   -0.000476   0.000874  -0.069325  -0.000003  -0.000151
    9  SI 1  Z   -0.203247  -0.000047   0.001326  -0.241926  -0.192965
   10  SI 1  S    0.749236   0.000215  -0.005054   1.403699  -0.381304
   11  SI 1  X   -0.000269   1.729886   0.021841  -0.000013   0.000071
   12  SI 1  Y   -0.010719   0.021783  -1.730299  -0.000368   0.000431
   13  SI 1  Z    0.939050   0.000221  -0.006022   0.379666  -0.417243
   14  SI 1 XX   -0.027789   0.000946  -0.075391  -0.052542  -0.041615
   15  SI 1 YY   -0.026871  -0.000958   0.075738  -0.052491  -0.041648
   16  SI 1 ZZ    0.160734   0.000037  -0.000997  -0.083920  -0.074440
   17  SI 1 XY   -0.000012   0.087233   0.001102  -0.000000   0.000001
   18  SI 1 XZ   -0.000002   0.022627   0.000282   0.000000   0.000001
   19  SI 1 YZ   -0.000127   0.000288  -0.022607  -0.000009   0.000031
   20  SI 2  S    0.017590   0.000003  -0.000101  -0.036664   0.041409
   21  SI 2  S   -0.043882  -0.000005   0.000247   0.036495  -0.129804
   22  SI 2  X   -0.000005   0.030348   0.000382   0.000000  -0.000001
   23  SI 2  Y   -0.000200   0.000383  -0.030331  -0.000002   0.000018
   24  SI 2  Z   -0.021364  -0.000005   0.000147  -0.063372   0.037433
   25  SI 2  S    0.363148   0.000066  -0.002095  -0.995250   0.783090
   26  SI 2  X    0.000012  -0.069395  -0.000873  -0.000001   0.000007
   27  SI 2  Y    0.000478  -0.000875   0.069323  -0.000003  -0.000094
   28  SI 2  Z    0.203247   0.000049  -0.001332   0.241928  -0.192966
   29  SI 2  S    0.749253   0.000147  -0.004859   1.403693   0.381313
   30  SI 2  X    0.000240  -1.730044  -0.021785   0.000005  -0.000059
   31  SI 2  Y    0.010631  -0.021830   1.730144   0.000343   0.000049
   32  SI 2  Z   -0.939039  -0.000218   0.006019  -0.379661  -0.417237
   33  SI 2 XX   -0.027790   0.000945  -0.075382  -0.052544   0.041620
   34  SI 2 YY   -0.026869  -0.000960   0.075735  -0.052489   0.041642
   35  SI 2 ZZ    0.160734   0.000035  -0.000992  -0.083921   0.074438
   36  SI 2 XY   -0.000013   0.087240   0.001098  -0.000001   0.000001
   37  SI 2 XZ   -0.000005   0.022609   0.000289  -0.000001  -0.000001
   38  SI 2 YZ   -0.000137   0.000282  -0.022626  -0.000014  -0.000030
   39  H  3  S   -0.044566  -0.000492   0.038369  -0.021884   0.068757
   40  H  3  S   -0.483030  -0.012106   0.954846  -0.164263   0.670874
   41  H  4  S   -0.044935   0.033187  -0.018330  -0.021899   0.068778
   42  H  4  S   -0.491946   0.829870  -0.462327  -0.164570   0.671081
   43  H  5  S   -0.044923  -0.032734  -0.019166  -0.021899   0.068777
   44  H  5  S   -0.491690  -0.818145  -0.483153  -0.164556   0.671038
   45  H  6  S   -0.044571  -0.000489   0.038345  -0.021884  -0.068761
   46  H  6  S   -0.483087  -0.012108   0.954636  -0.164277  -0.671013
   47  H  7  S   -0.044923  -0.032737  -0.019171  -0.021898  -0.068776
   48  H  7  S   -0.491682  -0.818211  -0.483126  -0.164545  -0.671008
   49  H  8  S   -0.044932   0.033202  -0.018343  -0.021898  -0.068775
   50  H  8  S   -0.491908   0.830026  -0.462392  -0.164547  -0.670970

                     26         27
                    0.3444     0.3444
                     A          A   
    1  SI 1  S   -0.000010  -0.000000
    2  SI 1  S   -0.000013  -0.000001
    3  SI 1  X    0.002636  -0.193809
    4  SI 1  Y   -0.193807  -0.002636
    5  SI 1  Z    0.000052   0.000001
    6  SI 1  S   -0.000358  -0.000015
    7  SI 1  X   -0.012390   0.910796
    8  SI 1  Y    0.910795   0.012389
    9  SI 1  Z   -0.000219  -0.000004
   10  SI 1  S    0.001062   0.000045
   11  SI 1  X    0.007690  -0.565896
   12  SI 1  Y   -0.565876  -0.007707
   13  SI 1  Z   -0.000116  -0.000008
   14  SI 1 XX   -0.003285  -0.000045
   15  SI 1 YY    0.003247   0.000044
   16  SI 1 ZZ   -0.000028  -0.000002
   17  SI 1 XY    0.000051  -0.003771
   18  SI 1 XZ    0.001161  -0.085411
   19  SI 1 YZ   -0.085400  -0.001162
   20  SI 2  S    0.000010   0.000000
   21  SI 2  S    0.000011  -0.000000
   22  SI 2  X    0.002636  -0.193810
   23  SI 2  Y   -0.193807  -0.002636
   24  SI 2  Z    0.000058   0.000003
   25  SI 2  S    0.000347   0.000011
   26  SI 2  X   -0.012388   0.910803
   27  SI 2  Y    0.910793   0.012389
   28  SI 2  Z   -0.000248  -0.000014
   29  SI 2  S   -0.001029  -0.000033
   30  SI 2  X    0.007706  -0.565842
   31  SI 2  Y   -0.565931  -0.007687
   32  SI 2  Z   -0.000093   0.000000
   33  SI 2 XX    0.003289   0.000045
   34  SI 2 YY   -0.003247  -0.000043
   35  SI 2 ZZ    0.000020  -0.000001
   36  SI 2 XY   -0.000052   0.003768
   37  SI 2 XZ   -0.001162   0.085410
   38  SI 2 YZ    0.085402   0.001162
   39  H  3  S    0.010668   0.000145
   40  H  3  S   -0.239080  -0.003252
   41  H  4  S   -0.005208  -0.009299
   42  H  4  S    0.116567   0.208563
   43  H  5  S   -0.005460   0.009153
   44  H  5  S    0.122207  -0.205329
   45  H  6  S   -0.010670  -0.000145
   46  H  6  S    0.239035   0.003256
   47  H  7  S    0.005457  -0.009154
   48  H  7  S   -0.122193   0.205350
   49  H  8  S    0.005206   0.009298
   50  H  8  S   -0.116574  -0.208603

     ----------------------------------------------------------------
     PROPERTY VALUES FOR THE UHF   SELF-CONSISTENT FIELD WAVEFUNCTION
     ----------------------------------------------------------------

          -----------------
          ENERGY COMPONENTS
          -----------------

         WAVEFUNCTION NORMALIZATION =       1.0000000000

                ONE ELECTRON ENERGY =    -985.3974899541
                TWO ELECTRON ENERGY =     313.7517950519
           NUCLEAR REPULSION ENERGY =      90.3407484453
                                      ------------------
                       TOTAL ENERGY =    -581.3049464569

 ELECTRON-ELECTRON POTENTIAL ENERGY =     313.7517950519
  NUCLEUS-ELECTRON POTENTIAL ENERGY =   -1566.5166411586
   NUCLEUS-NUCLEUS POTENTIAL ENERGY =      90.3407484453
                                      ------------------
             TOTAL POTENTIAL ENERGY =   -1162.4240976614
               TOTAL KINETIC ENERGY =     581.1191512045
                 VIRIAL RATIO (V/T) =       2.0003197197

          ---------------------------------------
          MULLIKEN AND LOWDIN POPULATION ANALYSES
          ---------------------------------------

     ATOMIC MULLIKEN POPULATION IN EACH MOLECULAR ORBITAL
        ALPHA ORBITALS

                      1          2          3          4          5

                  1.000000   1.000000   1.000000   1.000000   1.000000

    1             0.482027   0.517965   0.499243   0.500714   0.497773
    2             0.517963   0.482029   0.500723   0.499233   0.502258
    3             0.000002   0.000001   0.000006   0.000009  -0.000010
    4             0.000002   0.000001   0.000006   0.000009  -0.000002
    5             0.000002   0.000001   0.000006   0.000009  -0.000003
    6             0.000002   0.000001   0.000006   0.000009  -0.000010
    7             0.000002   0.000001   0.000006   0.000009  -0.000003
    8             0.000002   0.000001   0.000006   0.000009  -0.000002

                      6          7          8          9         10

                  1.000000   1.000000   1.000000   1.000000   1.000000

    1             0.499266   0.502266   0.500779   0.499874   0.500174
    2             0.500765   0.497787   0.499274   0.500192   0.499856
    3            -0.000000  -0.000018  -0.000000  -0.000011  -0.000005
    4            -0.000008  -0.000004  -0.000013  -0.000011  -0.000005
    5            -0.000008  -0.000005  -0.000013  -0.000011  -0.000005
    6            -0.000000  -0.000017  -0.000000  -0.000011  -0.000005
    7            -0.000008  -0.000005  -0.000013  -0.000011  -0.000005
    8            -0.000008  -0.000004  -0.000013  -0.000011  -0.000005

                     11         12         13         14         15

                  1.000000   1.000000   1.000000   1.000000   1.000000

    1             0.353957   0.277219   0.221585   0.221698   0.188023
    2             0.353958   0.277218   0.221707   0.221586   0.188135
    3             0.048680   0.074271   0.000002   0.185607   0.207896
    4             0.048681   0.074255   0.139683   0.045849   0.049286
    5             0.048681   0.074256   0.138580   0.046983   0.054657
    6             0.048680   0.074270   0.000002   0.185504   0.208007
    7             0.048682   0.074256   0.138655   0.046936   0.054699
    8             0.048682   0.074255   0.139785   0.045837   0.049298

                     16         17

                  1.000000   1.000000

    1             0.188137   0.401753
    2             0.188015   0.401752
    3             0.000047   0.032698
    4             0.158684   0.032775
    5             0.153282   0.032774
    6             0.000046   0.032693
    7             0.153212   0.032775
    8             0.158577   0.032779

     ATOMIC MULLIKEN POPULATION IN EACH MOLECULAR ORBITAL
         BETA ORBITALS

                      1          2          3          4          5

                  1.000000   1.000000   1.000000   1.000000   1.000000

    1             0.482027   0.517965   0.499243   0.500714   0.497773
    2             0.517963   0.482029   0.500723   0.499233   0.502258
    3             0.000002   0.000001   0.000006   0.000009  -0.000010
    4             0.000002   0.000001   0.000006   0.000009  -0.000002
    5             0.000002   0.000001   0.000006   0.000009  -0.000003
    6             0.000002   0.000001   0.000006   0.000009  -0.000010
    7             0.000002   0.000001   0.000006   0.000009  -0.000003
    8             0.000002   0.000001   0.000006   0.000009  -0.000002

                      6          7          8          9         10

                  1.000000   1.000000   1.000000   1.000000   1.000000

    1             0.499266   0.502266   0.500779   0.499874   0.500174
    2             0.500765   0.497787   0.499274   0.500192   0.499856
    3            -0.000000  -0.000018  -0.000000  -0.000011  -0.000005
    4            -0.000008  -0.000004  -0.000013  -0.000011  -0.000005
    5            -0.000008  -0.000005  -0.000013  -0.000011  -0.000005
    6            -0.000000  -0.000017  -0.000000  -0.000011  -0.000005
    7            -0.000008  -0.000005  -0.000013  -0.000011  -0.000005
    8            -0.000008  -0.000004  -0.000013  -0.000011  -0.000005

                     11         12         13         14         15

                  1.000000   1.000000   1.000000   1.000000   1.000000

    1             0.353957   0.277219   0.221585   0.221698   0.188023
    2             0.353958   0.277218   0.221707   0.221586   0.188135
    3             0.048680   0.074271   0.000002   0.185607   0.207896
    4             0.048681   0.074255   0.139683   0.045849   0.049286
    5             0.048681   0.074256   0.138580   0.046983   0.054657
    6             0.048680   0.074270   0.000002   0.185504   0.208007
    7             0.048682   0.074256   0.138655   0.046936   0.054699
    8             0.048682   0.074255   0.139785   0.045837   0.049298

                     16         17

                  1.000000   1.000000

    1             0.188137   0.401753
    2             0.188015   0.401752
    3             0.000047   0.032698
    4             0.158684   0.032775
    5             0.153282   0.032774
    6             0.000046   0.032693
    7             0.153212   0.032775
    8             0.158577   0.032779

     ATOMIC SPIN POPULATION (ALPHA MINUS BETA)
       ATOM         MULL.POP.                    LOW.POP.
    1 SI            0.000000                     0.000000
    2 SI            0.000000                     0.000000
    3 H             0.000000                     0.000000
    4 H             0.000000                     0.000000
    5 H             0.000000                     0.000000
    6 H             0.000000                     0.000000
    7 H             0.000000                     0.000000
    8 H             0.000000                     0.000000


          ********* ALL ELECTRONS ********

               ----- POPULATIONS IN EACH AO -----
                             MULLIKEN      LOWDIN
              1  SI 1  S      1.99912     1.99864
              2  SI 1  S      2.00020     1.97503
              3  SI 1  X      1.99363     1.96889
              4  SI 1  Y      1.99363     1.96887
              5  SI 1  Z      1.99347     1.96880
              6  SI 1  S      0.92502     0.41088
              7  SI 1  X      0.66896     0.59602
              8  SI 1  Y      0.66897     0.59457
              9  SI 1  Z      0.71277     0.63911
             10  SI 1  S      0.19749     0.27446
             11  SI 1  X      0.08677     0.27839
             12  SI 1  Y      0.08676     0.27711
             13  SI 1  Z      0.10617     0.28253
             14  SI 1 XX      0.06462     0.20926
             15  SI 1 YY      0.06462     0.20927
             16  SI 1 ZZ      0.04858     0.19646
             17  SI 1 XY      0.04622     0.05365
             18  SI 1 XZ      0.02395     0.02874
             19  SI 1 YZ      0.02397     0.02857
             20  SI 2  S      1.99912     1.99864
             21  SI 2  S      2.00020     1.97503
             22  SI 2  X      1.99363     1.96889
             23  SI 2  Y      1.99363     1.96887
             24  SI 2  Z      1.99347     1.96880
             25  SI 2  S      0.92502     0.41088
             26  SI 2  X      0.66897     0.59603
             27  SI 2  Y      0.66896     0.59456
             28  SI 2  Z      0.71277     0.63911
             29  SI 2  S      0.19749     0.27446
             30  SI 2  X      0.08676     0.27839
             31  SI 2  Y      0.08677     0.27711
             32  SI 2  Z      0.10617     0.28253
             33  SI 2 XX      0.06463     0.20927
             34  SI 2 YY      0.06461     0.20926
             35  SI 2 ZZ      0.04858     0.19646
             36  SI 2 XY      0.04621     0.05364
             37  SI 2 XZ      0.02395     0.02874
             38  SI 2 YZ      0.02396     0.02857
             39  H  3  S      0.49267     0.48876
             40  H  3  S      0.60568     0.52776
             41  H  4  S      0.49267     0.48603
             42  H  4  S      0.60570     0.52609
             43  H  5  S      0.49267     0.48603
             44  H  5  S      0.60570     0.52608
             45  H  6  S      0.49267     0.48876
             46  H  6  S      0.60568     0.52776
             47  H  7  S      0.49267     0.48603
             48  H  7  S      0.60570     0.52608
             49  H  8  S      0.49267     0.48603
             50  H  8  S      0.60570     0.52608

          ----- MULLIKEN ATOMIC OVERLAP POPULATIONS -----
          (OFF-DIAGONAL ELEMENTS NEED TO BE MULTIPLIED BY 2)

             1           2           3           4           5

    1   12.1908476
    2    0.3938987  12.1908473
    3    0.3901252  -0.0167272   0.7511319
    4    0.3901229  -0.0167422  -0.0131741   0.7511744
    5    0.3901219  -0.0167419  -0.0131730  -0.0131727   0.7511729
    6   -0.0167267   0.3901290   0.0001753  -0.0000049  -0.0000049
    7   -0.0167421   0.3901211  -0.0000049  -0.0000049   0.0001756
    8   -0.0167426   0.3901198  -0.0000049   0.0001756  -0.0000049

             6           7           8

    6    0.7511328
    7   -0.0131761   0.7511725
    8   -0.0131749  -0.0131686   0.7511734

          TOTAL MULLIKEN AND LOWDIN ATOMIC POPULATIONS
       ATOM         MULL.POP.    CHARGE          LOW.POP.     CHARGE
    1 SI           13.704905    0.295095        13.959267    0.040733
    2 SI           13.704904    0.295096        13.959265    0.040735
    3 H             1.098348   -0.098348         1.016512   -0.016512
    4 H             1.098374   -0.098374         1.012112   -0.012112
    5 H             1.098373   -0.098373         1.012110   -0.012110
    6 H             1.098350   -0.098350         1.016515   -0.016515
    7 H             1.098373   -0.098373         1.012110   -0.012110
    8 H             1.098373   -0.098373         1.012110   -0.012110

          -------------------------------
          BOND ORDER AND VALENCE ANALYSIS     BOND ORDER THRESHOLD=0.050
          -------------------------------

                   BOND                       BOND                       BOND
  ATOM PAIR DIST  ORDER      ATOM PAIR DIST  ORDER      ATOM PAIR DIST  ORDER
    1   2  2.361  0.956        1   3  1.483  0.960        1   4  1.483  0.960
    1   5  1.483  0.960        2   6  1.483  0.960        2   7  1.483  0.960
    2   8  1.483  0.960

                       TOTAL       BONDED        FREE
      ATOM            VALENCE     VALENCE     VALENCE
    1 SI                3.851       3.851       0.000
    2 SI                3.851       3.851       0.000
    3 H                 0.970       0.970      -0.000
    4 H                 0.970       0.970      -0.000
    5 H                 0.970       0.970       0.000
    6 H                 0.970       0.970      -0.000
    7 H                 0.970       0.970       0.000
    8 H                 0.970       0.970      -0.000

          -----------------------------------------
          ATOMIC SPIN DENSITY AT THE NUCLEUS (A.U.)
          -----------------------------------------
                            SPIN DENS    ALPHA DENS     BETA DENS
    1  SI          14.0     0.0000000     826.29845     826.29845
    2  SI          14.0     0.0000000     826.29845     826.29845
    3  H            1.0     0.0000000       0.19132       0.19132
    4  H            1.0     0.0000000       0.19133       0.19133
    5  H            1.0     0.0000000       0.19133       0.19133
    6  H            1.0     0.0000000       0.19132       0.19132
    7  H            1.0     0.0000000       0.19133       0.19133
    8  H            1.0     0.0000000       0.19133       0.19133

          ---------------------
          ELECTROSTATIC MOMENTS
          ---------------------

 POINT   1           X           Y           Z (BOHR)    CHARGE
                 0.000010    0.000030   -0.000001        0.00 (A.U.)
         DX          DY          DZ         /D/  (DEBYE)
     0.000058    0.000168   -0.000012    0.000178
 ...... END OF PROPERTY EVALUATION ......
 STEP CPU TIME =     0.00 TOTAL CPU TIME =          1.5 (      0.0 MIN)
 TOTAL WALL CLOCK TIME=          1.5 SECONDS, CPU UTILIZATION IS    99.54%
  $VIB   
          IVIB=   0 IATOM=   0 ICOORD=   0 E=     -581.3049464569
  2.049880360E-06 2.714864565E-05-6.380288744E-05 8.694723851E-07-1.859646485E-05
  6.339740059E-05-1.086069973E-06-1.710579092E-05 2.250838953E-06 1.211376874E-05
  4.695411238E-06-1.023554425E-05-1.262761681E-05 3.705833188E-06-1.041514395E-05
 -1.061800089E-06 1.768577624E-05-4.057674799E-06 9.164701341E-06-9.322244859E-06
  1.095638951E-05-9.422335877E-06-8.211165629E-06 1.190663394E-05
  5.758860739E-05 1.677029611E-04-1.196611514E-05
 ......END OF GEOMETRY SEARCH......
 STEP CPU TIME =     0.00 TOTAL CPU TIME =          1.5 (      0.0 MIN)
 TOTAL WALL CLOCK TIME=          1.5 SECONDS, CPU UTILIZATION IS    99.54%
               987943  WORDS OF DYNAMIC MEMORY USED
 EXECUTION OF GAMESS TERMINATED NORMALLY 19:56:17 20-OCT-2025    
----- accounting info -----
Files used on the parent node Macbooks-MacBook-Pro.local were:
-rw-r--r--  1 macbookpro  staff      529 Oct 20 19:56 /Users/macbookpro/local/gamess/scr/si2h6_q0m1_uhf_631g_star.F05
-rw-r--r--  1 macbookpro  staff  7560672 Oct 20 19:56 /Users/macbookpro/local/gamess/scr/si2h6_q0m1_uhf_631g_star.F08
-rw-r--r--  1 macbookpro  staff  2094080 Oct 20 19:56 /Users/macbookpro/local/gamess/scr/si2h6_q0m1_uhf_631g_star.F10
-rw-r--r--  1 macbookpro  staff   381474 Oct 20 19:56 /Users/macbookpro/local/gamess/scr/si2h6_q0m1_uhf_631g_star.dat
Mon Oct 20 19:56:17 +07 2025
1.479u 0.103s 0:01.59 98.7%	0+0k 0+0io 46pf+0w
