1 : sih2_q0m3_uhf_631g_star.inp
----- GAMESS execution script 'rungms' -----
This job is running on host Macbooks-MacBook-Pro.local
under operating system Darwin at Mon Oct 20 19:56:08 +07 2025
Available scratch disk space (Kbyte units) at beginning of the job is
Filesystem   1024-blocks      Used Available Capacity iused      ifree %iused  Mounted on
/dev/disk3s5   482797652 122173708 339919504    27% 1896364 3399195040    0%   /System/Volumes/Data
GAMESS temporary binary files will be written to /Users/macbookpro/local/gamess/scr
GAMESS supplementary output files will be written to /Users/macbookpro/local/gamess/scr
Copying input file /Users/macbookpro/sq2_data/sih2_q0m3_uhf_631g_star.inp to your run's scratch directory...
          *******************************************************
          *                                                     *
          *          GAMESS VERSION = 30 JUN 2023 (R1)          *
          *                                                     *
          *              doi.org/10.1063/5.0005188              *
          *                                                     *
          **************** 64 BIT LINUX VERSION *****************

  GAMESS HAS BEEN MADE POSSIBLE WITH IMPORTANT CONTRIBUTIONS FROM
  THE FOLLOWING INDIVIDUALS (IN ALPHABETICAL ORDER):

     IVANA ADAMOVIC, CHRISTINE AIKENS, TOMOKO AKAMA,
     MELISA ALKAN, YURI ALEXEEV, YURIKO AOKI, POOJA ARORA,
     TOSHIO ASADA, ANDREY ASADCHEV, KIM K. BALDRIDGE,
     PRADIPTA BANDYOPADHYAY, TAYLOR A. BARNES, MARIA BARYSZ,
     ROB BELL, JONATHAN BENTZ, COLLEEN BERTONI,
     JERRY A. BOATZ, BRETT BODE, KURT BRORSEN, KURT R. BRORSEN,
     LAIMUTIS BYTAUTAS, CALEB CARLIN, LAURA CARRINGTON,
     GALINA CHABAN, BENOIT CHAMPAGNE, WEI CHEN, MAHITO CHIBA,
     DAN CHIPMAN, CHEOL HO CHOI, TANNER CULPITT,
     DIPAYAN DATTA, PAUL DAY, ALBERT DEFUSCO,
     NUWAN DESILVA, J. EMILIANO DEUSTUA,
     TIM DUDLEY, MICHEL DUPUIS, STEVEN T. ELBERT,
     DMITRI FEDOROV, KATHERINE FERRERAS, MICHAEL FILATOV,
     ALEX FINDLATER,GRAHAM FLETCHER, MARK FREITAG,
     CHRISTIAN FRIEDL, DAVID GARMER, 
     IGOR S. GERASIMOV, KURT GLAESEMANN,
     MARK S. GORDON, JEFFREY R. GOUR, FENG LONG GU,
     EMILIE B. GUIDEZ, ANASTASIA GUNINA, SHARON HAMMES-SCHIFFER,
     MASATAKE HARUTA, KIMIHIKO HIRAO, YASUHIRO IKABATA,
     TZVETELIN IORDANOV, STEPHAN IRLE, KAZUYA ISHIMURA,
     JOE IVANIC, FRANK JENSEN, JAN H. JENSEN, VISVALDAS KAIRYS,
     MUNEAKI KAMIYA, MICHIO KATOUDA, NAOAKI KAWAKAMI, DAN KEMP,
     BERNARD KIRTMAN, KAZUO KITAURA, MARIUSZ KLOBUKOWSKI,
     MASATO KOBAYASHI, KONSTANTIN KOMAROV, PRAKASHAN KORAMBATH,
     JACEK KORCHOWIEC, SHIRO KOSEKI, KAROL KOWALSKI,
     JIMMY KROMANN, STANISLAW A. KUCHARSKI, HENRY KURTZ,
     SAROM SOK LEANG, SEUNGHOON LEE, HUI LI, SHUHUA LI, WEI LI,
     JESSE J. LUTZ, ALEKSANDR O. LYKHIN,
     ILIAS MAGOULAS, MARCIN MAKOWSKI,
     JOANI MATO, NIKITA MATSUNAGA, BENEDETTA MENNUCCI,
     GRANT MERRILL, NORIYUKI MINEZAWA, VLADIMIR MIRONOV,
     EISAKU MIYOSHI, JOHN A. MONTGOMERY JR., HIROTOSHI MORI,
     JONATHAN MULLIN, MONIKA MUSIAL, SHIGERU NAGASE,
     TAKESHI NAGATA, HIROMI NAKAI, TAKAHITO NAKAJIMA,
     YUYA NAKAJIMA, HARUYUKI NAKANO, HIROYA NAKATA, SEAN NEDD,
     HEATHER NETZLOFF, KIET A. NGUYEN, YOSHIO NISHIMOTO,
     BOSILJKA NJEGIC, RYAN OLSON, MIKE PAK, ROBERTO PEVERATI,
     BUU PHAM, PIOTR PIECUCH, ANNA POMOGAEVA, DAVID POOLE,
     SPENCER PRUITT, OLIVIER QUINET, LUKE ROSKOP,
     KLAUS RUEDENBERG, ANDREW SAND, TOSAPORN SATTASATHUCHANA,
     NOZOMI SAWADA, MICHAEL W. SCHMIDT, PATRICK E. SCHNEIDER,
     JUNJI SEINO, PRACHI SHARMA, JUN SHEN, JIM SHOEMAKER,
     YINAN SHU, DEJUN SI, JONATHAN SKONE, LYUDMILA SLIPCHENKO,
     TONY SMITH, JIE SONG, MARK SPACKMAN, CASPER STEINMANN,
     WALT STEVENS, PEIFENG SU, SHUJUN SU, CHET SWALINA,
     CHINAMI TAKASHIMA, TETSUYA TAKETSUGU, ZHEN TAO,
     NANDUN THELLAMUREGE, SEIKEN TOKURA, JACOPO TOMASI,
     TSUGUKI TOUMA, TAKAO TSUNEDA, HIROAKI UMEDA,
     JORGE LUIS GALVEZ VALLEJO, YALI WANG, SIMON WEBB,
     AARON WEST, THERESA L. WINDUS, MARTA WLOCH,
     PENG XU, KIYOSHI YAGI, SUSUMU YANAGISAWA, YANG YANG,
     SOOHAENG YOO, TAKESHI YOSHIKAWA, FEDERICO ZAHARIEV,
     TOBY ZENG

  WHO ARE SUPPORTED BY THEIR INSTITUTION/UNIVERSITY/COMPANY/GROUP
  (IN ALPHABETICAL ORDER):

     EP ANALYTICS,
     FACULTES UNIVERSITAIRES NOTRE-DAME DE LA PAIX,
     INSTITUTE FOR MOLECULAR SCIENCE, IOWA STATE UNIVERSITY,
     JACKSON STATE UNIVERSITY, JOHANNES KEPLER UNIVERSITY LINZ,
     KYUNGPOOK NATIONAL UNIVERSITY
     KYUSHU UNIVERSITY, MICHIGAN STATE UNIVERSITY,
     MIE UNIVERSITY, THE MOLECULAR SCIENCES SOFTWARE INSTITUTE,
     MOSCOW STATE UNIVERSITY,
     N. COPERNICUS UNIVERSITY, NAGOYA UNIVERSITY,
     NANJING UNIVERSITY, NAT. INST. OF ADVANCED INDUSTRIAL
     SCIENCE AND TECHNOLOGY, NATIONAL INST. OF STANDARDS AND
     TECHNOLOGY, NESMEYANOV INSTITUTE OF ORGANOELEMENT COMPOUNDS
     OF RUSSIAN ACADEMY OF SCIENCES, OSAKA PREFECTURE UNIVERSITY,
     PENNSYLVANIA STATE UNIVERSITY, TOKYO INSTITUTE OF TECHNOLOGY,
     UNIVERSITY OF AARHUS, UNIVERSITY OF ALBERTA,
     UNIVERSITY OF CALIFORNIA AT SANTA BARBARA,
     UNIVERSITY OF COPENHAGEN, UNIVERSITY OF IOWA,
     UNIVERSITY OF MEMPHIS, UNIVERSITY OF MINNESOTA,
     UNIVERSITY OF NEBRASKA, UNIVERSITY OF NEW ENGLAND,
     UNIVERSITY OF NOTRE DAME, UNIVERSITY OF PISA,
     UNIVERSITY OF SILESIA, UNIVERSITY OF TOKYO,
     UNIVERSITY OF ZURICH, WASEDA UNIVERSITY,
     YALE UNIVERSITY

  GAMESS SOFTWARE MANAGEMENT TEAM FOR THIS RELEASE:
     MARK S. GORDON (TEAM LEAD),
     BRETT BODE (SENIOR ADVISOR),
     GIUSEPPE BARCA,
     COLLEEN BERTONI,
     KRISTOPHER KEIPERT (ADVISOR),
     SAROM S. LEANG (DEVELOPMENT LEAD),
     BUU PHAM,
     JACKSON HAYES (WEBSITE ADMINISTRATOR),
     PENG XU

 EXECUTION OF GAMESS BEGUN 19:56:08 20-OCT-2025    

            ECHO OF THE FIRST FEW INPUT CARDS -
 INPUT CARD> $CONTRL SCFTYP=UHF ICHARG=0 MULT=3                                             
 INPUT CARD> RUNTYP=OPTIMIZE                                                                
 INPUT CARD> $END                                                                           
 INPUT CARD> $BASIS GBASIS=N31 NGAUSS=6 NDFUNC=1 $END                                       
 INPUT CARD> $DATA                                                                          
 INPUT CARD> ... this is comment ...                                                        
 INPUT CARD> C1                                                                             
 INPUT CARD> SI   14   0.00000000   0.00000000   0.09625398                                 
 INPUT CARD> H     1   0.00000000   1.27618882  -0.66645599                                 
 INPUT CARD> H     1  -0.00000000  -1.27618882  -0.66645599                                 
 INPUT CARD> $END                                                                           
 INPUT CARD>                                                                                
      1000000 WORDS OF MEMORY AVAILABLE

     BASIS OPTIONS
     -------------
     GBASIS=N31          IGAUSS=       6      POLAR=POPN31  
     NDFUNC=       1     NFFUNC=       0     DIFFSP=       F
     NPFUNC=       0      DIFFS=       F     BASNAM=        


     RUN TITLE
     ---------
  ... this is comment ...                                                        

 THE POINT GROUP OF THE MOLECULE IS C1      
 THE ORDER OF THE PRINCIPAL AXIS IS     0

 ATOM      ATOMIC                      COORDINATES (BOHR)
           CHARGE         X                   Y                   Z
 SI         14.0     0.0000000000        0.0000000000        0.1818936474
 H           1.0     0.0000000000        2.4116471784       -1.2594192040
 H           1.0    -0.0000000000       -2.4116471784       -1.2594192040

          INTERNUCLEAR DISTANCES (ANGS.)
          ------------------------------

                1 SI         2 H          3 H     

   1 SI      0.0000000    1.4867362 *  1.4867362 *
   2 H       1.4867362 *  0.0000000    2.5523776 *
   3 H       1.4867362 *  2.5523776 *  0.0000000  

  * ... LESS THAN  3.000


     ATOMIC BASIS SET
     ----------------
 THE CONTRACTED PRIMITIVE FUNCTIONS HAVE BEEN UNNORMALIZED
 THE CONTRACTED BASIS FUNCTIONS ARE NOW NORMALIZED TO UNITY

  SHELL TYPE  PRIMITIVE        EXPONENT          CONTRACTION COEFFICIENT(S)

 SI        

      1   S       1         16192.1000000    0.001949239405
      1   S       2          2436.0900000    0.014855895466
      1   S       3           556.0010000    0.072568877851
      1   S       4           156.8130000    0.245654925022
      1   S       5            50.1692000    0.486059851646
      1   S       6            17.0300000    0.325719900585

      2   L       7           293.3500000   -0.002829912441    0.004433341604
      2   L       8            70.1173000   -0.036073731114    0.032440211739
      2   L       9            22.4301000   -0.116808100749    0.133719048387
      2   L      10             8.1942500    0.093576880711    0.326780118247
      2   L      11             3.1476800    0.601705518979    0.451139163247
      2   L      12             1.2151500    0.422072364043    0.264105095568

      3   L      13             1.6537000   -0.240599186106   -0.015177406538
      3   L      14             0.5407600    0.073795050368    0.275139118516
      3   L      15             0.2044060    1.040936478740    0.783008337279

      4   L      16             0.0723837    1.000000000000    1.000000000000

      5   D      17             0.3950000    1.000000000000

 H         

      6   S      18            18.7311370    0.033494604338
      6   S      19             2.8253944    0.234726953484
      6   S      20             0.6401217    0.813757326146

      7   S      21             0.1612778    1.000000000000

 H         

      8   S      22            18.7311370    0.033494604338
      8   S      23             2.8253944    0.234726953484
      8   S      24             0.6401217    0.813757326146

      9   S      25             0.1612778    1.000000000000

 TOTAL NUMBER OF BASIS SET SHELLS             =    9
 NUMBER OF CARTESIAN GAUSSIAN BASIS FUNCTIONS =   23
 NUMBER OF ELECTRONS                          =   16
 CHARGE OF MOLECULE                           =    0
 SPIN MULTIPLICITY                            =    3
 NUMBER OF OCCUPIED ORBITALS (ALPHA)          =    9
 NUMBER OF OCCUPIED ORBITALS (BETA )          =    7
 TOTAL NUMBER OF ATOMS                        =    3
 THE NUCLEAR REPULSION ENERGY IS       10.1734283585

     $CONTRL OPTIONS
     ---------------
 SCFTYP=UHF          RUNTYP=OPTIMIZE     EXETYP=RUN     
 MPLEVL=       0     CITYP =NONE         CCTYP =NONE         VBTYP =NONE    
 DFTTYP=NONE         TDDFT =NONE    
 MULT  =       3     ICHARG=       0     NZVAR =       0     COORD =UNIQUE  
 PP    =NONE         RELWFN=NONE         LOCAL =NONE         NUMGRD=       F
 ISPHER=      -1     NOSYM =       0     MAXIT =      30     UNITS =ANGS    
 PLTORB=       F     MOLPLT=       F     AIMPAC=       F     FRIEND=        
 NPRINT=       7     IREST =       0     GEOM  =INPUT   
 NORMF =       0     NORMP =       0     ITOL  =      20     ICUT  =       9
 INTTYP=BEST         GRDTYP=BEST         QMTTOL= 1.0E-06

     $SYSTEM OPTIONS
     ---------------
  REPLICATED MEMORY=     1000000 WORDS (ON EVERY NODE).
 DISTRIBUTED MEMDDI=           0 MILLION WORDS IN AGGREGATE,
 MEMDDI DISTRIBUTED OVER   1 PROCESSORS IS           0 WORDS/PROCESSOR.
 TOTAL MEMORY REQUESTED ON EACH PROCESSOR=     1000000 WORDS.
 TIMLIM=      525600.00 MINUTES, OR     365.0 DAYS.
 PARALL= F  BALTYP=  DLB     KDIAG=    0  COREFL= F
 MXSEQ2=     300 MXSEQ3=     150  mem10=         0  mem22=         0

          ----------------
          PROPERTIES INPUT
          ----------------

     MOMENTS            FIELD           POTENTIAL          DENSITY
 IEMOM =       1   IEFLD =       0   IEPOT =       0   IEDEN =       0
 WHERE =COMASS     WHERE =NUCLEI     WHERE =NUCLEI     WHERE =NUCLEI  
 OUTPUT=BOTH       OUTPUT=BOTH       OUTPUT=BOTH       OUTPUT=BOTH    
 IEMINT=       0   IEFINT=       0                     IEDINT=       0
                                                       MORB  =       0
          EXTRAPOLATION IN EFFECT
          SOSCF IN EFFECT
          DIIS or SOSCF will be reset if energy rises
 ORBITAL PRINTING OPTION: NPREO=     1    23     2     1

     -------------------------------
     INTEGRAL TRANSFORMATION OPTIONS
     -------------------------------
     NWORD  =            0
     CUTTRF = 1.0E-09     MPTRAN =       0
     DIRTRF =       F     AOINTS =DUP     

          ----------------------
          INTEGRAL INPUT OPTIONS
          ----------------------
 NOPK  =       1 NORDER=       0 SCHWRZ=       F

     ------------------------------------------
     THE POINT GROUP IS C1 , NAXIS= 0, ORDER= 1
     ------------------------------------------

     DIMENSIONS OF THE SYMMETRY SUBSPACES ARE
 A   =   23

 ..... DONE SETTING UP THE RUN .....
 STEP CPU TIME =     0.00 TOTAL CPU TIME =          0.0 (      0.0 MIN)
 TOTAL WALL CLOCK TIME=          0.0 SECONDS, CPU UTILIZATION IS    96.93%


          -----------------------------
          STATIONARY POINT LOCATION RUN
          -----------------------------

 OBTAINING INITIAL HESSIAN, HESS=GUESS   
 CARTESIAN COORDINATE OPTIMIZATION USING BADGER'S RULE FORCE CONSTANT GUESS

          PARAMETERS CONTROLLING GEOMETRY SEARCH ARE
          METHOD =QA                  UPHESS =BFGS    
          NNEG   =         0          NFRZ   =         0
          NSTEP  =        50          IFOLOW =         1
          HESS   =GUESS               RESTAR =         F
          IHREP  =         0          HSSEND =         F
          NPRT   =         0          NPUN   =         0
          OPTTOL = 1.000E-04          RMIN   = 1.500E-03
          RMAX   = 1.000E-01          RLIM   = 7.000E-02
          DXMAX  = 3.000E-01          PURIFY =         F
          MOVIE  =         F          TRUPD  =         T
          TRMAX  = 5.000E-01          TRMIN  = 5.000E-02
          ITBMAT =         5          STPT   =         F
          STSTEP = 1.000E-02          PROJCT=          T

 BEGINNING GEOMETRY SEARCH POINT NSERCH=   0 ...

 COORDINATES OF ALL ATOMS ARE (ANGS)
   ATOM   CHARGE       X              Y              Z
 ------------------------------------------------------------
 SI         14.0   0.0000000000   0.0000000000   0.0962539800
 H           1.0   0.0000000000   1.2761888200  -0.6664559900
 H           1.0  -0.0000000000  -1.2761888200  -0.6664559900

          ********************
          1 ELECTRON INTEGRALS
          ********************
 ...... END OF ONE-ELECTRON INTEGRALS ......
 STEP CPU TIME =     0.00 TOTAL CPU TIME =          0.0 (      0.0 MIN)
 TOTAL WALL CLOCK TIME=          0.0 SECONDS, CPU UTILIZATION IS    97.19%

          -------------
          GUESS OPTIONS
          -------------
          GUESS =HUCKEL            NORB  =       0          NORDER=       0
          MIX   =       F          PRTMO =       F          PUNMO =       F
          TOLZ  = 1.0E-08          TOLE  = 1.0E-05
          SYMDEN=       F          PURIFY=       F

 INITIAL GUESS ORBITALS GENERATED BY HUCKEL   ROUTINE.
 HUCKEL GUESS REQUIRES      6672 WORDS.

 SYMMETRIES FOR INITIAL GUESS ORBITALS FOLLOW.  ALPHA SET(S).
     9 ORBITALS ARE OCCUPIED (    5 CORE ORBITALS).
     6=A        7=A        8=A        9=A       10=A       11=A       12=A   
    13=A       14=A       15=A       16=A       17=A       18=A       19=A   

 SYMMETRIES FOR INITIAL GUESS ORBITALS FOLLOW.   BETA SET(S).
     7 ORBITALS ARE OCCUPIED (    5 CORE ORBITALS).
     6=A        7=A        8=A        9=A       10=A       11=A       12=A   
    13=A       14=A       15=A       16=A       17=A   
 ...... END OF INITIAL ORBITAL SELECTION ......
 STEP CPU TIME =     0.00 TOTAL CPU TIME =          0.0 (      0.0 MIN)
 TOTAL WALL CLOCK TIME=          0.0 SECONDS, CPU UTILIZATION IS    97.54%

                    ----------------------
                    AO INTEGRAL TECHNOLOGY
                    ----------------------
     S,P,L SHELL ROTATED AXIS INTEGRALS, REPROGRAMMED BY
        KAZUYA ISHIMURA (IMS) AND JOSE SIERRA (SYNSTAR).
     S,P,D,L SHELL ROTATED AXIS INTEGRALS PROGRAMMED BY
        KAZUYA ISHIMURA (INSTITUTE FOR MOLECULAR SCIENCE).
     S,P,D,F,G SHELL TO TOTAL QUARTET ANGULAR MOMENTUM SUM 5,
        ERIC PROGRAM BY GRAHAM FLETCHER (ELORET AND NASA ADVANCED
        SUPERCOMPUTING DIVISION, AMES RESEARCH CENTER).
     S,P,D,F,G,L SHELL GENERAL RYS QUADRATURE PROGRAMMED BY
        MICHEL DUPUIS (PACIFIC NORTHWEST NATIONAL LABORATORY).

          --------------------
          2 ELECTRON INTEGRALS
          --------------------

 THE -PK- OPTION IS OFF, THE INTEGRALS ARE NOT IN SUPERMATRIX FORM.
 STORING   15000 INTEGRALS/RECORD ON DISK, USING 12 BYTES/INTEGRAL.
 TWO ELECTRON INTEGRAL EVALUATION REQUIRES   90441 WORDS OF MEMORY.
 II,JST,KST,LST =  1  1  1  1 NREC =         1 INTLOC =    1
 II,JST,KST,LST =  2  1  1  1 NREC =         1 INTLOC =    2
 II,JST,KST,LST =  3  1  1  1 NREC =         1 INTLOC =   34
 II,JST,KST,LST =  4  1  1  1 NREC =         1 INTLOC =  214
 II,JST,KST,LST =  5  1  1  1 NREC =         1 INTLOC =  776
 II,JST,KST,LST =  6  1  1  1 NREC =         1 INTLOC = 2864
 II,JST,KST,LST =  7  1  1  1 NREC =         1 INTLOC = 5149
 II,JST,KST,LST =  8  1  1  1 NREC =         1 INTLOC = 7835
 II,JST,KST,LST =  9  1  1  1 NREC =         1 INTLOC =10926
 TOTAL NUMBER OF NONZERO TWO-ELECTRON INTEGRALS =               14516
          1 INTEGRAL RECORDS WERE STORED ON DISK FILE  8.
  ...... END OF TWO-ELECTRON INTEGRALS .....
 STEP CPU TIME =     0.01 TOTAL CPU TIME =          0.0 (      0.0 MIN)
 TOTAL WALL CLOCK TIME=          0.0 SECONDS, CPU UTILIZATION IS    98.76%

          ---------------------------
                  UHF SCF CALCULATION
          ---------------------------

     NUCLEAR ENERGY =        10.1734283585
     MAXIT = 30     NPUNCH=  2     MULT=  3
     EXTRAP=T  DAMP=F  SHIFT=F  RSTRCT=F  DIIS=F  SOSCF=T
     DENSITY MATRIX CONV=  1.00E-05
     SOSCF WILL OPTIMIZE     126 ALPHA AND     112 BETA ROTATION ANGLES.
     SOGTOL= 2.500E-01
     MEMORY REQUIRED FOR UHF/ROHF ITERS=     37324 WORDS.

 ITER EX      TOTAL ENERGY        E CHANGE  DENSITY CHANGE    ORB. GRAD 
   1  0     -289.8503083246  -289.8503083246   0.466917026   0.000000000
          ---------------START SECOND ORDER SCF---------------
   2  1     -289.9872759435    -0.1369676189   0.053880302   0.017578430
   3  2     -289.9918055736    -0.0045296301   0.039945220   0.007143426
   4  3     -289.9925598129    -0.0007542392   0.008708042   0.001874737
   5  4     -289.9926097478    -0.0000499349   0.008849793   0.001300415
   6  5     -289.9926384259    -0.0000286782   0.001365969   0.000501839
   7  6     -289.9926404895    -0.0000020635   0.000688168   0.000208915
   8  7     -289.9926408270    -0.0000003375   0.000121378   0.000044247
   9  8     -289.9926408415    -0.0000000145   0.000061418   0.000012427
  10  9     -289.9926408441    -0.0000000025   0.000011513   0.000004427
  11 10     -289.9926408442    -0.0000000002   0.000005105   0.000001758
  12 11     -289.9926408443    -0.0000000000   0.000001362   0.000000412

          -----------------
          DENSITY CONVERGED
          -----------------
     TIME TO FORM FOCK OPERATORS=       0.0 SECONDS (       0.0 SEC/ITER)
     TIME TO SOLVE SCF EQUATIONS=       0.0 SECONDS (       0.0 SEC/ITER)

 FINAL UHF ENERGY IS     -289.9926408443 AFTER  12 ITERATIONS

          --------------------
          SPIN SZ   =    1.000
          S-SQUARED =    2.005
          --------------------

  ----- ALPHA SET ----- 

          ------------
          EIGENVECTORS
          ------------

                      1          2          3          4          5
                  -68.7908    -6.1499    -4.2608    -4.2574    -4.2493
                     A          A          A          A          A   
    1  SI 1  S    0.996855  -0.268312  -0.000000   0.001382   0.000000
    2  SI 1  S    0.012501   1.030816  -0.000000  -0.005317   0.000000
    3  SI 1  X    0.000000  -0.000000   0.995317  -0.000000   0.000000
    4  SI 1  Y    0.000000  -0.000000  -0.000000  -0.000000   0.994861
    5  SI 1  Z    0.000015   0.005504  -0.000000   0.994999   0.000000
    6  SI 1  S   -0.016890   0.003635  -0.000000  -0.002462   0.000000
    7  SI 1  X    0.000000  -0.000000   0.017798  -0.000000   0.000000
    8  SI 1  Y    0.000000  -0.000000  -0.000000  -0.000000   0.019511
    9  SI 1  Z    0.000005  -0.000041  -0.000000   0.018962   0.000000
   10  SI 1  S    0.001885  -0.001597  -0.000000  -0.000533   0.000000
   11  SI 1  X    0.000000  -0.000000  -0.004137  -0.000000   0.000000
   12  SI 1  Y    0.000000  -0.000000  -0.000000  -0.000000  -0.003752
   13  SI 1  Z    0.000073   0.000005  -0.000000  -0.004130   0.000000
   14  SI 1 XX    0.005958   0.003189  -0.000000   0.000754   0.000000
   15  SI 1 YY    0.005928   0.002730  -0.000000  -0.000021   0.000000
   16  SI 1 ZZ    0.005949   0.003118  -0.000000   0.001856   0.000000
   17  SI 1 XY    0.000000  -0.000000  -0.000000  -0.000000   0.000000
   18  SI 1 XZ    0.000000  -0.000000   0.000889  -0.000000   0.000000
   19  SI 1 YZ    0.000000  -0.000000  -0.000000  -0.000000  -0.000181
   20  H  2  S   -0.000039   0.000338  -0.000000  -0.000458   0.000781
   21  H  2  S    0.000143  -0.000064  -0.000000   0.000705  -0.000954
   22  H  3  S   -0.000039   0.000338  -0.000000  -0.000458  -0.000781
   23  H  3  S    0.000143  -0.000064  -0.000000   0.000705   0.000954

                      6          7          8          9         10
                   -0.7268    -0.5082    -0.3883    -0.3049     0.1571
                     A          A          A          A          A   
    1  SI 1  S    0.057067   0.000000   0.021099   0.000000  -0.000000
    2  SI 1  S   -0.276539   0.000000  -0.096895   0.000000  -0.000000
    3  SI 1  X    0.000000   0.000000   0.000000  -0.226269  -0.000000
    4  SI 1  Y    0.000000  -0.169510   0.000000   0.000000  -0.052491
    5  SI 1  Z    0.016547   0.000000  -0.198311   0.000000  -0.000000
    6  SI 1  S    0.580517   0.000000   0.280235   0.000000  -0.000000
    7  SI 1  X    0.000000   0.000000   0.000000   0.680500  -0.000000
    8  SI 1  Y    0.000000   0.437121   0.000000   0.000000   0.165591
    9  SI 1  Z   -0.020104   0.000000   0.569669   0.000000  -0.000000
   10  SI 1  S    0.213291   0.000000   0.301320   0.000000  -0.000000
   11  SI 1  X    0.000000   0.000000   0.000000   0.436593  -0.000000
   12  SI 1  Y    0.000000   0.051675   0.000000   0.000000   1.539647
   13  SI 1  Z    0.007160   0.000000   0.216669   0.000000  -0.000000
   14  SI 1 XX    0.006066   0.000000   0.051477   0.000000  -0.000000
   15  SI 1 YY    0.034400   0.000000  -0.077976   0.000000  -0.000000
   16  SI 1 ZZ    0.018614   0.000000   0.036756   0.000000  -0.000000
   17  SI 1 XY    0.000000   0.000000   0.000000   0.000000  -0.000000
   18  SI 1 XZ    0.000000   0.000000   0.000000   0.032572  -0.000000
   19  SI 1 YZ    0.000000  -0.090782   0.000000   0.000000   0.129729
   20  H  2  S    0.154274   0.230284  -0.142605   0.000000  -0.087148
   21  H  2  S    0.099641   0.266741  -0.233850   0.000000  -0.971556
   22  H  3  S    0.154274  -0.230284  -0.142605   0.000000   0.087148
   23  H  3  S    0.099641  -0.266741  -0.233850   0.000000   0.971556

                     11         12         13         14         15
                    0.1646     0.2461     0.3269     0.3396     0.3504
                     A          A          A          A          A   
    1  SI 1  S    0.016187  -0.057640   0.000000  -0.007374  -0.000000
    2  SI 1  S   -0.092620   0.075117   0.000000   0.031836  -0.000000
    3  SI 1  X   -0.000000  -0.000000   0.255252   0.000000  -0.000000
    4  SI 1  Y   -0.000000  -0.000000   0.000000   0.000000  -0.286808
    5  SI 1  Z    0.038287   0.001707   0.000000  -0.273515  -0.000000
    6  SI 1  S    0.142277  -1.527732   0.000000  -0.084104  -0.000000
    7  SI 1  X   -0.000000  -0.000000  -1.214035   0.000000  -0.000000
    8  SI 1  Y   -0.000000  -0.000000   0.000000   0.000000   1.343693
    9  SI 1  Z   -0.094625  -0.035626   0.000000   1.283457  -0.000000
   10  SI 1  S    1.299894   1.926428   0.000000  -0.379736  -0.000000
   11  SI 1  X   -0.000000  -0.000000   1.270519   0.000000  -0.000000
   12  SI 1  Y   -0.000000  -0.000000   0.000000   0.000000  -0.745847
   13  SI 1  Z   -1.112961  -0.001359   0.000000  -0.972832  -0.000000
   14  SI 1 XX    0.137987  -0.063016   0.000000  -0.088063  -0.000000
   15  SI 1 YY   -0.113998  -0.081508   0.000000   0.005795  -0.000000
   16  SI 1 ZZ    0.017018  -0.077832   0.000000   0.021318  -0.000000
   17  SI 1 XY   -0.000000  -0.000000   0.000000   0.000000  -0.000000
   18  SI 1 XZ   -0.000000  -0.000000  -0.041623   0.000000  -0.000000
   19  SI 1 YZ   -0.000000  -0.000000   0.000000   0.000000   0.085517
   20  H  2  S   -0.124680  -0.002329   0.000000   0.013725   0.004572
   21  H  2  S   -1.043518  -0.133145   0.000000   0.369490  -0.422434
   22  H  3  S   -0.124680  -0.002329   0.000000   0.013725  -0.004572
   23  H  3  S   -1.043518  -0.133145   0.000000   0.369490   0.422434

                     16         17         18         19         20
                    0.6708     0.6735     0.6801     0.7990     0.8013
                     A          A          A          A          A   
    1  SI 1  S   -0.000000  -0.000415   0.000000   0.000000  -0.002178
    2  SI 1  S   -0.000000   0.000330   0.000000   0.000000  -0.003509
    3  SI 1  X    0.017133   0.000000   0.000000   0.000000  -0.000000
    4  SI 1  Y   -0.000000   0.000000   0.000000  -0.000837  -0.000000
    5  SI 1  Z   -0.000000   0.017029   0.000000   0.000000  -0.001893
    6  SI 1  S   -0.000000  -0.016398   0.000000   0.000000  -0.116636
    7  SI 1  X   -0.072814   0.000000   0.000000   0.000000  -0.000000
    8  SI 1  Y   -0.000000   0.000000   0.000000  -0.163147  -0.000000
    9  SI 1  Z   -0.000000  -0.079443   0.000000   0.000000  -0.085562
   10  SI 1  S   -0.000000   0.103994   0.000000   0.000000   1.372080
   11  SI 1  X    0.038719   0.000000   0.000000   0.000000  -0.000000
   12  SI 1  Y   -0.000000   0.000000   0.000000  -1.008687  -0.000000
   13  SI 1  Z   -0.000000  -0.002768   0.000000   0.000000  -0.600148
   14  SI 1 XX   -0.000000  -0.650767   0.000000   0.000000  -0.722235
   15  SI 1 YY   -0.000000  -0.322852   0.000000   0.000000   0.980856
   16  SI 1 ZZ   -0.000000   0.983086   0.000000   0.000000  -0.166655
   17  SI 1 XY   -0.000000   0.000000   1.000000   0.000000  -0.000000
   18  SI 1 XZ    0.998602   0.000000   0.000000   0.000000  -0.000000
   19  SI 1 YZ   -0.000000   0.000000   0.000000   0.973253  -0.000000
   20  H  2  S   -0.000000   0.015414   0.000000  -0.289681   0.222989
   21  H  2  S   -0.000000  -0.087209   0.000000   1.280263  -1.220682
   22  H  3  S   -0.000000   0.015414   0.000000   0.289681   0.222989
   23  H  3  S   -0.000000  -0.087209   0.000000  -1.280263  -1.220682

                     21         22         23
                    1.2429     1.3857     2.5890
                     A          A          A   
    1  SI 1  S    0.022599   0.000000   0.144437
    2  SI 1  S   -0.122936   0.000000  -0.662359
    3  SI 1  X   -0.000000   0.000000   0.000000
    4  SI 1  Y   -0.000000  -0.119283   0.000000
    5  SI 1  Z    0.066971   0.000000  -0.006460
    6  SI 1  S    0.425748   0.000000   5.997849
    7  SI 1  X   -0.000000   0.000000   0.000000
    8  SI 1  Y   -0.000000   0.394886   0.000000
    9  SI 1  Z   -0.198063   0.000000   0.018521
   10  SI 1  S   -0.818741   0.000000  -0.160495
   11  SI 1  X   -0.000000   0.000000   0.000000
   12  SI 1  Y   -0.000000  -0.457559   0.000000
   13  SI 1  Z    0.394006   0.000000  -0.054420
   14  SI 1 XX   -0.464314   0.000000  -2.518237
   15  SI 1 YY    0.305680   0.000000  -2.586362
   16  SI 1 ZZ   -0.176484   0.000000  -2.542358
   17  SI 1 XY   -0.000000   0.000000   0.000000
   18  SI 1 XZ   -0.000000   0.000000   0.000000
   19  SI 1 YZ   -0.000000  -0.595540   0.000000
   20  H  2  S   -0.972978  -0.994968   0.172874
   21  H  2  S    1.064760   0.834852  -0.166224
   22  H  3  S   -0.972978   0.994968   0.172874
   23  H  3  S    1.064760  -0.834852  -0.166224

  ----- BETA SET ----- 

          ------------
          EIGENVECTORS
          ------------

                      1          2          3          4          5
                  -68.7796    -6.1330    -4.2421    -4.2351    -4.2317
                     A          A          A          A          A   
    1  SI 1  S    0.996879  -0.268166   0.000000  -0.000321  -0.000000
    2  SI 1  S    0.012406   1.030435   0.000000   0.001186  -0.000000
    3  SI 1  X    0.000000  -0.000000   0.000000   0.000000   0.995293
    4  SI 1  Y    0.000000  -0.000000   0.995109   0.000000  -0.000000
    5  SI 1  Z    0.000003  -0.001603   0.000000   0.995074  -0.000000
    6  SI 1  S   -0.016627   0.009329   0.000000   0.005553  -0.000000
    7  SI 1  X    0.000000  -0.000000   0.000000   0.000000   0.018084
    8  SI 1  Y    0.000000  -0.000000   0.018601   0.000000  -0.000000
    9  SI 1  Z    0.000020   0.000035   0.000000   0.018856  -0.000000
   10  SI 1  S    0.001858  -0.002488   0.000000  -0.001606  -0.000000
   11  SI 1  X    0.000000  -0.000000   0.000000   0.000000  -0.004927
   12  SI 1  Y    0.000000  -0.000000  -0.003724   0.000000  -0.000000
   13  SI 1  Z    0.000068  -0.000197   0.000000  -0.004678  -0.000000
   14  SI 1 XX    0.005881   0.000004   0.000000  -0.001702  -0.000000
   15  SI 1 YY    0.005831   0.000830   0.000000  -0.002501  -0.000000
   16  SI 1 ZZ    0.005866   0.000337   0.000000  -0.002596  -0.000000
   17  SI 1 XY    0.000000  -0.000000   0.000000   0.000000  -0.000000
   18  SI 1 XZ    0.000000  -0.000000   0.000000   0.000000  -0.000441
   19  SI 1 YZ    0.000000  -0.000000  -0.001098   0.000000  -0.000000
   20  H  2  S   -0.000036   0.000294   0.000888  -0.000621  -0.000000
   21  H  2  S    0.000141  -0.000045  -0.000905   0.000655  -0.000000
   22  H  3  S   -0.000036   0.000294  -0.000888  -0.000621  -0.000000
   23  H  3  S    0.000141  -0.000045   0.000905   0.000655  -0.000000

                      6          7          8          9         10
                   -0.6260    -0.4840     0.0261     0.0723     0.1976
                     A          A          A          A          A   
    1  SI 1  S    0.049110  -0.000000   0.026253   0.000000  -0.000000
    2  SI 1  S   -0.240206  -0.000000  -0.141442   0.000000  -0.000000
    3  SI 1  X    0.000000  -0.000000  -0.000000  -0.144978  -0.000000
    4  SI 1  Y    0.000000  -0.165962  -0.000000   0.000000  -0.009656
    5  SI 1  Z    0.065174  -0.000000  -0.130445   0.000000  -0.000000
    6  SI 1  S    0.493164  -0.000000   0.242169   0.000000  -0.000000
    7  SI 1  X    0.000000  -0.000000  -0.000000   0.312431  -0.000000
    8  SI 1  Y    0.000000   0.423652  -0.000000   0.000000  -0.029583
    9  SI 1  Z   -0.168108  -0.000000   0.272664   0.000000  -0.000000
   10  SI 1  S    0.100161  -0.000000   0.475986   0.000000  -0.000000
   11  SI 1  X    0.000000  -0.000000  -0.000000   0.775454  -0.000000
   12  SI 1  Y    0.000000   0.047094  -0.000000   0.000000   1.667068
   13  SI 1  Z    0.013799  -0.000000   0.530448   0.000000  -0.000000
   14  SI 1 XX   -0.049825  -0.000000   0.016313   0.000000  -0.000000
   15  SI 1 YY    0.086092  -0.000000   0.001139   0.000000  -0.000000
   16  SI 1 ZZ   -0.004400  -0.000000  -0.019245   0.000000  -0.000000
   17  SI 1 XY    0.000000  -0.000000  -0.000000   0.000000  -0.000000
   18  SI 1 XZ    0.000000  -0.000000  -0.000000  -0.026735  -0.000000
   19  SI 1 YZ    0.000000  -0.099392  -0.000000   0.000000   0.080942
   20  H  2  S    0.188893   0.233028  -0.091344   0.000000  -0.076716
   21  H  2  S    0.185519   0.273829  -0.181209   0.000000  -0.933980
   22  H  3  S    0.188893  -0.233028  -0.091344   0.000000   0.076716
   23  H  3  S    0.185519  -0.273829  -0.181209   0.000000   0.933980

                     11         12         13         14         15
                    0.2106     0.2842     0.3878     0.4119     0.4201
                     A          A          A          A          A   
    1  SI 1  S    0.017917  -0.060902   0.000000   0.011547   0.000000
    2  SI 1  S   -0.120832   0.097913   0.000000  -0.017934   0.000000
    3  SI 1  X    0.000000  -0.000000   0.000000  -0.000000  -0.308903
    4  SI 1  Y    0.000000  -0.000000  -0.291998  -0.000000   0.000000
    5  SI 1  Z    0.015712  -0.048717   0.000000  -0.301844   0.000000
    6  SI 1  S    0.085301  -1.516244   0.000000   0.287180   0.000000
    7  SI 1  X    0.000000  -0.000000   0.000000  -0.000000   1.356703
    8  SI 1  Y    0.000000  -0.000000   1.365966  -0.000000   0.000000
    9  SI 1  Z   -0.032751   0.221206   0.000000   1.347375   0.000000
   10  SI 1  S    1.577510   1.603322   0.000000  -0.670634   0.000000
   11  SI 1  X    0.000000  -0.000000   0.000000  -0.000000  -1.097468
   12  SI 1  Y    0.000000  -0.000000  -0.441782  -0.000000   0.000000
   13  SI 1  Z   -1.104097  -0.113954   0.000000  -0.875046   0.000000
   14  SI 1 XX    0.056791  -0.073182   0.000000  -0.005356   0.000000
   15  SI 1 YY   -0.096908  -0.098891   0.000000   0.087180   0.000000
   16  SI 1 ZZ    0.049411  -0.093892   0.000000  -0.050654   0.000000
   17  SI 1 XY    0.000000  -0.000000   0.000000  -0.000000   0.000000
   18  SI 1 XZ    0.000000  -0.000000   0.000000  -0.000000  -0.040381
   19  SI 1 YZ    0.000000  -0.000000   0.039951  -0.000000   0.000000
   20  H  2  S   -0.120739   0.009199   0.011438  -0.011316   0.000000
   21  H  2  S   -1.108663   0.092991  -0.639849   0.336688   0.000000
   22  H  3  S   -0.120739   0.009199  -0.011438  -0.011316   0.000000
   23  H  3  S   -1.108663   0.092991   0.639849   0.336688   0.000000

                     16         17         18         19         20
                    0.7588     0.7742     0.7914     0.8358     0.8506
                     A          A          A          A          A   
    1  SI 1  S    0.000000   0.002201  -0.000000   0.000000  -0.008863
    2  SI 1  S    0.000000  -0.004806  -0.000000   0.000000   0.025730
    3  SI 1  X    0.000000   0.000000  -0.015929   0.000000  -0.000000
    4  SI 1  Y    0.000000   0.000000  -0.000000  -0.022224  -0.000000
    5  SI 1  Z    0.000000  -0.019899  -0.000000   0.000000  -0.000367
    6  SI 1  S    0.000000   0.058374  -0.000000   0.000000  -0.223565
    7  SI 1  X    0.000000   0.000000   0.063219   0.000000  -0.000000
    8  SI 1  Y    0.000000   0.000000  -0.000000  -0.067569  -0.000000
    9  SI 1  Z    0.000000   0.104943  -0.000000   0.000000  -0.087287
   10  SI 1  S    0.000000  -0.392466  -0.000000   0.000000   1.319762
   11  SI 1  X    0.000000   0.000000  -0.023615   0.000000  -0.000000
   12  SI 1  Y    0.000000   0.000000  -0.000000  -0.991629  -0.000000
   13  SI 1  Z    0.000000   0.136269  -0.000000   0.000000  -0.554195
   14  SI 1 XX    0.000000  -0.431785  -0.000000   0.000000  -0.860689
   15  SI 1 YY    0.000000  -0.577075  -0.000000   0.000000   0.842221
   16  SI 1 ZZ    0.000000   0.985959  -0.000000   0.000000   0.123819
   17  SI 1 XY    1.000000   0.000000  -0.000000   0.000000  -0.000000
   18  SI 1 XZ    0.000000   0.000000   0.998827   0.000000  -0.000000
   19  SI 1 YZ    0.000000   0.000000  -0.000000   0.970131  -0.000000
   20  H  2  S    0.000000  -0.054352  -0.000000  -0.307640   0.266275
   21  H  2  S    0.000000   0.338443  -0.000000   1.227418  -1.171227
   22  H  3  S    0.000000  -0.054352  -0.000000   0.307640   0.266275
   23  H  3  S    0.000000   0.338443  -0.000000  -1.227418  -1.171227

                     21         22         23
                    1.2676     1.4053     2.6223
                     A          A          A   
    1  SI 1  S    0.020788   0.000000   0.144815
    2  SI 1  S   -0.114630   0.000000  -0.663111
    3  SI 1  X   -0.000000   0.000000   0.000000
    4  SI 1  Y   -0.000000  -0.118702   0.000000
    5  SI 1  Z    0.071456   0.000000  -0.009036
    6  SI 1  S    0.390441   0.000000   6.004134
    7  SI 1  X   -0.000000   0.000000   0.000000
    8  SI 1  Y   -0.000000   0.394723   0.000000
    9  SI 1  Z   -0.219901   0.000000   0.024521
   10  SI 1  S   -0.774051   0.000000  -0.174257
   11  SI 1  X   -0.000000   0.000000   0.000000
   12  SI 1  Y   -0.000000  -0.443224   0.000000
   13  SI 1  Z    0.377193   0.000000  -0.056602
   14  SI 1 XX   -0.494144   0.000000  -2.520502
   15  SI 1 YY    0.353951   0.000000  -2.583436
   16  SI 1 ZZ   -0.172971   0.000000  -2.542811
   17  SI 1 XY   -0.000000   0.000000   0.000000
   18  SI 1 XZ   -0.000000   0.000000   0.000000
   19  SI 1 YZ   -0.000000  -0.612447   0.000000
   20  H  2  S   -0.961551  -0.989728   0.170754
   21  H  2  S    1.017803   0.816278  -0.161791
   22  H  3  S   -0.961551   0.989728   0.170754
   23  H  3  S    1.017803  -0.816278  -0.161791
 ...... END OF UHF CALCULATION ......
 STEP CPU TIME =     0.00 TOTAL CPU TIME =          0.0 (      0.0 MIN)
 TOTAL WALL CLOCK TIME=          0.0 SECONDS, CPU UTILIZATION IS    98.55%

     ----------------------------------------------------------------
     PROPERTY VALUES FOR THE UHF   SELF-CONSISTENT FIELD WAVEFUNCTION
     ----------------------------------------------------------------

          -----------------
          ENERGY COMPONENTS
          -----------------

         WAVEFUNCTION NORMALIZATION =       1.0000000000

                ONE ELECTRON ENERGY =    -421.9643800733
                TWO ELECTRON ENERGY =     121.7983108706
           NUCLEAR REPULSION ENERGY =      10.1734283585
                                      ------------------
                       TOTAL ENERGY =    -289.9926408443

 ELECTRON-ELECTRON POTENTIAL ENERGY =     121.7983108706
  NUCLEUS-ELECTRON POTENTIAL ENERGY =    -711.8505696564
   NUCLEUS-NUCLEUS POTENTIAL ENERGY =      10.1734283585
                                      ------------------
             TOTAL POTENTIAL ENERGY =    -579.8788304274
               TOTAL KINETIC ENERGY =     289.8861895831
                 VIRIAL RATIO (V/T) =       2.0003672174

  ...... PI ENERGY ANALYSIS ......

 ENERGY ANALYSIS:
            FOCK ENERGY=   -178.3677574410
          BARE H ENERGY=   -421.9643800733
     ELECTRONIC ENERGY =   -300.1660687572
         KINETIC ENERGY=    289.8861895831
          N-N REPULSION=     10.1734283585
           TOTAL ENERGY=   -289.9926403987
        SIGMA PART(1+2)=   -269.6937229946
               (K,V1,2)=    264.5275086156   -634.3445331887    100.1233015785
           PI PART(1+2)=    -30.4723457626
               (K,V1,2)=     25.3586809675    -77.5060364677     21.6750097376
  SIGMA SKELETON, ERROR=   -259.5202946361     -0.0000000000
             MIXED PART= 0.00000E+00 0.00000E+00 0.00000E+00 0.00000E+00
 ...... END OF PI ENERGY ANALYSIS ......

          ---------------------------------------
          MULLIKEN AND LOWDIN POPULATION ANALYSES
          ---------------------------------------

     ATOMIC MULLIKEN POPULATION IN EACH MOLECULAR ORBITAL
        ALPHA ORBITALS

                      1          2          3          4          5

                  1.000000   1.000000   1.000000   1.000000   1.000000

    1             0.999996   1.000003   1.000000   1.000032   1.000063
    2             0.000002  -0.000002   0.000000  -0.000016  -0.000031
    3             0.000002  -0.000002   0.000000  -0.000016  -0.000031

                      6          7          8          9

                  1.000000   1.000000   1.000000   1.000000

    1             0.746270   0.419188   0.775990   1.000000
    2             0.126865   0.290406   0.112005   0.000000
    3             0.126865   0.290406   0.112005   0.000000

     ATOMIC MULLIKEN POPULATION IN EACH MOLECULAR ORBITAL
         BETA ORBITALS

                      1          2          3          4          5

                  1.000000   1.000000   1.000000   1.000000   1.000000

    1             0.999996   1.000000   1.000052   1.000023   1.000000
    2             0.000002  -0.000000  -0.000026  -0.000011   0.000000
    3             0.000002  -0.000000  -0.000026  -0.000011   0.000000

                      6          7

                  1.000000   1.000000

    1             0.559476   0.405242
    2             0.220262   0.297379
    3             0.220262   0.297379

     ATOMIC SPIN POPULATION (ALPHA MINUS BETA)
       ATOM         MULL.POP.                    LOW.POP.
    1 SI            1.976753                     1.946104
    2 H             0.011624                     0.026948
    3 H             0.011624                     0.026948


          ********* ALL ELECTRONS ********

               ----- POPULATIONS IN EACH AO -----
                             MULLIKEN      LOWDIN
              1  SI 1  S      1.99914     1.99875
              2  SI 1  S      2.00033     1.97724
              3  SI 1  X      1.99325     1.96734
              4  SI 1  Y      1.99392     1.96967
              5  SI 1  Z      1.99271     1.96496
              6  SI 1  S      0.97362     0.45955
              7  SI 1  X      0.62680     0.61311
              8  SI 1  Y      0.69828     0.61765
              9  SI 1  Z      0.53983     0.51114
             10  SI 1  S      0.31434     0.35427
             11  SI 1  X      0.37889     0.41849
             12  SI 1  Y      0.07349     0.27231
             13  SI 1  Z      0.16344     0.26304
             14  SI 1 XX     -0.00680     0.15361
             15  SI 1 YY      0.08762     0.26146
             16  SI 1 ZZ      0.01755     0.18298
             17  SI 1 XY      0.00000     0.00000
             18  SI 1 XZ      0.00106     0.00106
             19  SI 1 YZ      0.05885     0.06801
             20  H  2  S      0.47297     0.46252
             21  H  2  S      0.57386     0.51017
             22  H  3  S      0.47297     0.46252
             23  H  3  S      0.57386     0.51017

          ----- MULLIKEN ATOMIC OVERLAP POPULATIONS -----
          (OFF-DIAGONAL ELEMENTS NEED TO BE MULTIPLIED BY 2)

             1           2           3

    1   13.2079766
    2    0.3491772   0.7074800
    3    0.3491772  -0.0098226   0.7074800

          TOTAL MULLIKEN AND LOWDIN ATOMIC POPULATIONS
       ATOM         MULL.POP.    CHARGE          LOW.POP.     CHARGE
    1 SI           13.906331    0.093669        14.054632   -0.054632
    2 H             1.046835   -0.046835         0.972684    0.027316
    3 H             1.046835   -0.046835         0.972684    0.027316

          -------------------------------
          BOND ORDER AND VALENCE ANALYSIS     BOND ORDER THRESHOLD=0.050
          -------------------------------

                   BOND                       BOND                       BOND
  ATOM PAIR DIST  ORDER      ATOM PAIR DIST  ORDER      ATOM PAIR DIST  ORDER
    1   2  1.487  0.964        1   3  1.487  0.964

                       TOTAL       BONDED        FREE
      ATOM            VALENCE     VALENCE     VALENCE
    1 SI                3.757       1.928       1.829
    2 H                 0.976       0.976       0.000
    3 H                 0.976       0.976       0.000

          -----------------------------------------
          ATOMIC SPIN DENSITY AT THE NUCLEUS (A.U.)
          -----------------------------------------
                            SPIN DENS    ALPHA DENS     BETA DENS
    1  SI          14.0     1.0370296     826.99362     825.95659
    2  H            1.0     0.0127274       0.18917       0.17644
    3  H            1.0     0.0127274       0.18917       0.17644

          ---------------------
          ELECTROSTATIC MOMENTS
          ---------------------

 POINT   1           X           Y           Z (BOHR)    CHARGE
                 0.000000   -0.000000    0.085030       -0.00 (A.U.)
         DX          DY          DZ         /D/  (DEBYE)
     0.000000    0.000000    0.244482    0.244482
 ...... END OF PROPERTY EVALUATION ......
 STEP CPU TIME =     0.00 TOTAL CPU TIME =          0.0 (      0.0 MIN)
 TOTAL WALL CLOCK TIME=          0.0 SECONDS, CPU UTILIZATION IS    98.67%

 BEGINNING ONE ELECTRON GRADIENT...
 ..... END OF 1-ELECTRON GRADIENT ......
 STEP CPU TIME =     0.00 TOTAL CPU TIME =          0.0 (      0.0 MIN)
 TOTAL WALL CLOCK TIME=          0.0 SECONDS, CPU UTILIZATION IS    98.71%

          ----------------------
          GRADIENT OF THE ENERGY
          ----------------------

 THE MINIMUM MEMORY REQUIRED FOR THIS RUN IS      73598 WORDS.
 USING     988148 WORDS FOR 2E- DERIVATIVE INTEGRAL CONTRIBUTIONS.
 THE COARSE/FINE SCHWARZ SCREENINGS SKIPPED            0/           0 BLOCKS.
 THE NUMBER OF GRADIENT INTEGRAL BLOCKS COMPUTED WAS       903
 ...... END OF 2-ELECTRON GRADIENT ......
 STEP CPU TIME =     0.00 TOTAL CPU TIME =          0.0 (      0.0 MIN)
 TOTAL WALL CLOCK TIME=          0.0 SECONDS, CPU UTILIZATION IS    98.99%

          NSERCH=  0     ENERGY=    -289.9926408

                                 -----------------------
                                 GRADIENT (HARTREE/BOHR)
                                 -----------------------
        ATOM     ZNUC       DE/DX         DE/DY         DE/DZ
 --------------------------------------------------------------
    1  SI          14.0     0.0000000     0.0000000     0.0030863
    2  H            1.0     0.0000000     0.0033336    -0.0015432
    3  H            1.0     0.0000000    -0.0033336    -0.0015432

          MAXIMUM GRADIENT = 0.0033336    RMS GRADIENT = 0.0020142

 NSERCH:   0  E=     -289.9926408443  GRAD. MAX=  0.0033336  R.M.S.=  0.0020142

          FORCE CONSTANT MATRIX NOT UPDATED --- TAKING FIRST STEP
          MIN SEARCH, CORRECT HESSIAN, TRYING PURE NR STEP
               NR STEP HAS LENGTH         =   0.082352
          RADIUS OF STEP TAKEN=   0.08235  CURRENT TRUST RADIUS=   0.30000

 BEGINNING GEOMETRY SEARCH POINT NSERCH=   1 ...

 COORDINATES OF ALL ATOMS ARE (ANGS)
   ATOM   CHARGE       X              Y              Z
 ------------------------------------------------------------
 SI         14.0   0.0000000000   0.0000000000   0.1177277391
 H           1.0   0.0000000000   1.2516182349  -0.6771928696
 H           1.0   0.0000000000  -1.2516182349  -0.6771928696

          INTERNUCLEAR DISTANCES (ANGS.)
          ------------------------------

                1 SI         2 H          3 H     

   1 SI      0.0000000    1.4827161 *  1.4827161 *
   2 H       1.4827161 *  0.0000000    2.5032365 *
   3 H       1.4827161 *  2.5032365 *  0.0000000  

  * ... LESS THAN  3.000

 ...... END OF ONE-ELECTRON INTEGRALS ......
 STEP CPU TIME =     0.00 TOTAL CPU TIME =          0.0 (      0.0 MIN)
 TOTAL WALL CLOCK TIME=          0.0 SECONDS, CPU UTILIZATION IS    99.00%
 TOTAL NUMBER OF NONZERO TWO-ELECTRON INTEGRALS =               14516
          1 INTEGRAL RECORDS WERE STORED ON DISK FILE  8.
  ...... END OF TWO-ELECTRON INTEGRALS .....
 STEP CPU TIME =     0.00 TOTAL CPU TIME =          0.0 (      0.0 MIN)
 TOTAL WALL CLOCK TIME=          0.0 SECONDS, CPU UTILIZATION IS    99.08%

          ---------------------------
                  UHF SCF CALCULATION
          ---------------------------
     DENSITY MATRIX CONV=  1.00E-05

 ITER EX      TOTAL ENERGY        E CHANGE  DENSITY CHANGE    ORB. GRAD 
          ---------------START SECOND ORDER SCF---------------
   1  0     -289.9924867567  -289.9924867567   0.004718971   0.003461619
   2  1     -289.9925429449    -0.0000561882   0.002255285   0.000672507
   3  2     -289.9925470078    -0.0000040629   0.000636074   0.000258369
   4  3     -289.9925473227    -0.0000003149   0.000269377   0.000074333
   5  4     -289.9925473712    -0.0000000485   0.000084413   0.000021195
   6  5     -289.9925473760    -0.0000000047   0.000044281   0.000009365
   7  6     -289.9925473771    -0.0000000011   0.000013114   0.000003479
   8  7     -289.9925473773    -0.0000000002   0.000008280   0.000001880
   9  8     -289.9925473773    -0.0000000001   0.000004327   0.000001058

          -----------------
          DENSITY CONVERGED
          -----------------
     TIME TO FORM FOCK OPERATORS=       0.0 SECONDS (       0.0 SEC/ITER)
     TIME TO SOLVE SCF EQUATIONS=       0.0 SECONDS (       0.0 SEC/ITER)

 FINAL UHF ENERGY IS     -289.9925473773 AFTER   9 ITERATIONS

          --------------------
          SPIN SZ   =    1.000
          S-SQUARED =    2.005
          --------------------
 ...... END OF UHF CALCULATION ......
 STEP CPU TIME =     0.00 TOTAL CPU TIME =          0.0 (      0.0 MIN)
 TOTAL WALL CLOCK TIME=          0.0 SECONDS, CPU UTILIZATION IS    99.09%
 ..... END OF 1-ELECTRON GRADIENT ......
 STEP CPU TIME =     0.00 TOTAL CPU TIME =          0.0 (      0.0 MIN)
 TOTAL WALL CLOCK TIME=          0.0 SECONDS, CPU UTILIZATION IS    99.11%
 ...... END OF 2-ELECTRON GRADIENT ......
 STEP CPU TIME =     0.00 TOTAL CPU TIME =          0.0 (      0.0 MIN)
 TOTAL WALL CLOCK TIME=          0.0 SECONDS, CPU UTILIZATION IS    99.24%

          NSERCH=  1     ENERGY=    -289.9925474

                                 -----------------------
                                 GRADIENT (HARTREE/BOHR)
                                 -----------------------
        ATOM     ZNUC       DE/DX         DE/DY         DE/DZ
 --------------------------------------------------------------
    1  SI          14.0     0.0000000     0.0000000     0.0057115
    2  H            1.0     0.0000000     0.0004201    -0.0028557
    3  H            1.0     0.0000000    -0.0004201    -0.0028557

          MAXIMUM GRADIENT = 0.0057115    RMS GRADIENT = 0.0023401

 NSERCH:   1  E=     -289.9925473773  GRAD. MAX=  0.0057115  R.M.S.=  0.0023401

          HESSIAN UPDATED USING THE BFGS FORMULA
             ACTUAL ENERGY CHANGE WAS   0.0000934669
          PREDICTED ENERGY CHANGE WAS  -0.0000608524 RATIO= -1.536
          MIN SEARCH, CORRECT HESSIAN, TRYING PURE NR STEP
               NR STEP HAS LENGTH         =   0.063313
          TRIM/QA LAMBDA FOR NON-TS MODES =  -0.01956549
          TRIM/QA STEP HAS LENGTH         =   0.050000
          RADIUS OF STEP TAKEN=   0.05000  CURRENT TRUST RADIUS=   0.05000

 BEGINNING GEOMETRY SEARCH POINT NSERCH=   2 ...

 COORDINATES OF ALL ATOMS ARE (ANGS)
   ATOM   CHARGE       X              Y              Z
 ------------------------------------------------------------
 SI         14.0   0.0000000000   0.0000000000   0.0984382717
 H           1.0   0.0000000000   1.2600427846  -0.6675481359
 H           1.0   0.0000000000  -1.2600427846  -0.6675481359

          INTERNUCLEAR DISTANCES (ANGS.)
          ------------------------------

                1 SI         2 H          3 H     

   1 SI      0.0000000    1.4745993 *  1.4745993 *
   2 H       1.4745993 *  0.0000000    2.5200856 *
   3 H       1.4745993 *  2.5200856 *  0.0000000  

  * ... LESS THAN  3.000

 ...... END OF ONE-ELECTRON INTEGRALS ......
 STEP CPU TIME =     0.00 TOTAL CPU TIME =          0.0 (      0.0 MIN)
 TOTAL WALL CLOCK TIME=          0.0 SECONDS, CPU UTILIZATION IS    99.24%
 TOTAL NUMBER OF NONZERO TWO-ELECTRON INTEGRALS =               14516
          1 INTEGRAL RECORDS WERE STORED ON DISK FILE  8.
  ...... END OF TWO-ELECTRON INTEGRALS .....
 STEP CPU TIME =     0.00 TOTAL CPU TIME =          0.0 (      0.0 MIN)
 TOTAL WALL CLOCK TIME=          0.0 SECONDS, CPU UTILIZATION IS    99.28%

          ---------------------------
                  UHF SCF CALCULATION
          ---------------------------
     DENSITY MATRIX CONV=  1.00E-05

 ITER EX      TOTAL ENERGY        E CHANGE  DENSITY CHANGE    ORB. GRAD 
          ---------------START SECOND ORDER SCF---------------
   1  0     -289.9926561933  -289.9926561933   0.004592652   0.002203743
   2  1     -289.9926970541    -0.0000408608   0.002018078   0.000513368
   3  2     -289.9927008740    -0.0000038199   0.000501860   0.000172378
   4  3     -289.9927011230    -0.0000002490   0.000263211   0.000064370
   5  4     -289.9927011812    -0.0000000582   0.000098249   0.000025835
   6  5     -289.9927011866    -0.0000000055   0.000084825   0.000012458
   7  6     -289.9927011885    -0.0000000019   0.000026311   0.000005005
   8  7     -289.9927011887    -0.0000000002   0.000013131   0.000002477
   9  8     -289.9927011888    -0.0000000001   0.000002798   0.000000751

          -----------------
          DENSITY CONVERGED
          -----------------
     TIME TO FORM FOCK OPERATORS=       0.0 SECONDS (       0.0 SEC/ITER)
     TIME TO SOLVE SCF EQUATIONS=       0.0 SECONDS (       0.0 SEC/ITER)

 FINAL UHF ENERGY IS     -289.9927011888 AFTER   9 ITERATIONS

          --------------------
          SPIN SZ   =    1.000
          S-SQUARED =    2.005
          --------------------
 ...... END OF UHF CALCULATION ......
 STEP CPU TIME =     0.00 TOTAL CPU TIME =          0.0 (      0.0 MIN)
 TOTAL WALL CLOCK TIME=          0.0 SECONDS, CPU UTILIZATION IS    99.29%
 ..... END OF 1-ELECTRON GRADIENT ......
 STEP CPU TIME =     0.00 TOTAL CPU TIME =          0.0 (      0.0 MIN)
 TOTAL WALL CLOCK TIME=          0.0 SECONDS, CPU UTILIZATION IS    99.30%
 ...... END OF 2-ELECTRON GRADIENT ......
 STEP CPU TIME =     0.00 TOTAL CPU TIME =          0.0 (      0.0 MIN)
 TOTAL WALL CLOCK TIME=          0.0 SECONDS, CPU UTILIZATION IS    99.36%

          NSERCH=  2     ENERGY=    -289.9927012

                                 -----------------------
                                 GRADIENT (HARTREE/BOHR)
                                 -----------------------
        ATOM     ZNUC       DE/DX         DE/DY         DE/DZ
 --------------------------------------------------------------
    1  SI          14.0     0.0000000     0.0000000    -0.0004529
    2  H            1.0     0.0000000    -0.0011151     0.0002264
    3  H            1.0     0.0000000     0.0011151     0.0002264

          MAXIMUM GRADIENT = 0.0011151    RMS GRADIENT = 0.0005572

 NSERCH:   2  E=     -289.9927011888  GRAD. MAX=  0.0011151  R.M.S.=  0.0005572

          HESSIAN UPDATED USING THE BFGS FORMULA
             ACTUAL ENERGY CHANGE WAS  -0.0001538115
          PREDICTED ENERGY CHANGE WAS  -0.0001739135 RATIO=  0.884
          MIN SEARCH, CORRECT HESSIAN, TRYING PURE NR STEP
               NR STEP HAS LENGTH         =   0.017389
          RADIUS OF STEP TAKEN=   0.01739  CURRENT TRUST RADIUS=   0.07071

 BEGINNING GEOMETRY SEARCH POINT NSERCH=   3 ...

 COORDINATES OF ALL ATOMS ARE (ANGS)
   ATOM   CHARGE       X              Y              Z
 ------------------------------------------------------------
 SI         14.0   0.0000000000   0.0000000000   0.0958003788
 H           1.0   0.0000000000   1.2661352123  -0.6662291894
 H           1.0   0.0000000000  -1.2661352123  -0.6662291894

          INTERNUCLEAR DISTANCES (ANGS.)
          ------------------------------

                1 SI         2 H          3 H     

   1 SI      0.0000000    1.4777643 *  1.4777643 *
   2 H       1.4777643 *  0.0000000    2.5322704 *
   3 H       1.4777643 *  2.5322704 *  0.0000000  

  * ... LESS THAN  3.000

 ...... END OF ONE-ELECTRON INTEGRALS ......
 STEP CPU TIME =     0.00 TOTAL CPU TIME =          0.0 (      0.0 MIN)
 TOTAL WALL CLOCK TIME=          0.0 SECONDS, CPU UTILIZATION IS    99.36%
 TOTAL NUMBER OF NONZERO TWO-ELECTRON INTEGRALS =               14516
          1 INTEGRAL RECORDS WERE STORED ON DISK FILE  8.
  ...... END OF TWO-ELECTRON INTEGRALS .....
 STEP CPU TIME =     0.00 TOTAL CPU TIME =          0.0 (      0.0 MIN)
 TOTAL WALL CLOCK TIME=          0.0 SECONDS, CPU UTILIZATION IS    99.39%

          ---------------------------
                  UHF SCF CALCULATION
          ---------------------------
     DENSITY MATRIX CONV=  1.00E-05

 ITER EX      TOTAL ENERGY        E CHANGE  DENSITY CHANGE    ORB. GRAD 
          ---------------START SECOND ORDER SCF---------------
   1  0     -289.9927074558  -289.9927074558   0.001248054   0.000639596
   2  1     -289.9927103043    -0.0000028485   0.000380247   0.000126031
   3  2     -289.9927104550    -0.0000001507   0.000189246   0.000052830
   4  3     -289.9927104754    -0.0000000204   0.000081086   0.000019679
   5  4     -289.9927104793    -0.0000000038   0.000038322   0.000007244
   6  5     -289.9927104801    -0.0000000009   0.000017119   0.000005077
   7  6     -289.9927104804    -0.0000000002   0.000005447   0.000001729

          -----------------
          DENSITY CONVERGED
          -----------------
     TIME TO FORM FOCK OPERATORS=       0.0 SECONDS (       0.0 SEC/ITER)
     TIME TO SOLVE SCF EQUATIONS=       0.0 SECONDS (       0.0 SEC/ITER)

 FINAL UHF ENERGY IS     -289.9927104804 AFTER   7 ITERATIONS

          --------------------
          SPIN SZ   =    1.000
          S-SQUARED =    2.005
          --------------------
 ...... END OF UHF CALCULATION ......
 STEP CPU TIME =     0.00 TOTAL CPU TIME =          0.0 (      0.0 MIN)
 TOTAL WALL CLOCK TIME=          0.0 SECONDS, CPU UTILIZATION IS    99.39%
 ..... END OF 1-ELECTRON GRADIENT ......
 STEP CPU TIME =     0.00 TOTAL CPU TIME =          0.0 (      0.0 MIN)
 TOTAL WALL CLOCK TIME=          0.0 SECONDS, CPU UTILIZATION IS    99.40%
 ...... END OF 2-ELECTRON GRADIENT ......
 STEP CPU TIME =     0.00 TOTAL CPU TIME =          0.0 (      0.0 MIN)
 TOTAL WALL CLOCK TIME=          0.0 SECONDS, CPU UTILIZATION IS    99.44%

          NSERCH=  3     ENERGY=    -289.9927105

                                 -----------------------
                                 GRADIENT (HARTREE/BOHR)
                                 -----------------------
        ATOM     ZNUC       DE/DX         DE/DY         DE/DZ
 --------------------------------------------------------------
    1  SI          14.0     0.0000000     0.0000000     0.0001318
    2  H            1.0     0.0000000     0.0002036    -0.0000659
    3  H            1.0     0.0000000    -0.0002036    -0.0000659

          MAXIMUM GRADIENT = 0.0002036    RMS GRADIENT = 0.0001100

 NSERCH:   3  E=     -289.9927104804  GRAD. MAX=  0.0002036  R.M.S.=  0.0001100

          HESSIAN UPDATED USING THE BFGS FORMULA
             ACTUAL ENERGY CHANGE WAS  -0.0000092916
          PREDICTED ENERGY CHANGE WAS  -0.0000111448 RATIO=  0.834
          MIN SEARCH, CORRECT HESSIAN, TRYING PURE NR STEP
               NR STEP HAS LENGTH         =   0.002263
          RADIUS OF STEP TAKEN=   0.00226  CURRENT TRUST RADIUS=   0.05000

 BEGINNING GEOMETRY SEARCH POINT NSERCH=   4 ...

 COORDINATES OF ALL ATOMS ARE (ANGS)
   ATOM   CHARGE       X              Y              Z
 ------------------------------------------------------------
 SI         14.0   0.0000000000   0.0000000000   0.0960370902
 H           1.0   0.0000000000   1.2653136681  -0.6663475451
 H           1.0   0.0000000000  -1.2653136681  -0.6663475451

          INTERNUCLEAR DISTANCES (ANGS.)
          ------------------------------

                1 SI         2 H          3 H     

   1 SI      0.0000000    1.4772437 *  1.4772437 *
   2 H       1.4772437 *  0.0000000    2.5306273 *
   3 H       1.4772437 *  2.5306273 *  0.0000000  

  * ... LESS THAN  3.000

 ...... END OF ONE-ELECTRON INTEGRALS ......
 STEP CPU TIME =     0.00 TOTAL CPU TIME =          0.0 (      0.0 MIN)
 TOTAL WALL CLOCK TIME=          0.0 SECONDS, CPU UTILIZATION IS    99.44%
 TOTAL NUMBER OF NONZERO TWO-ELECTRON INTEGRALS =               14516
          1 INTEGRAL RECORDS WERE STORED ON DISK FILE  8.
  ...... END OF TWO-ELECTRON INTEGRALS .....
 STEP CPU TIME =     0.00 TOTAL CPU TIME =          0.0 (      0.0 MIN)
 TOTAL WALL CLOCK TIME=          0.0 SECONDS, CPU UTILIZATION IS    99.46%

          ---------------------------
                  UHF SCF CALCULATION
          ---------------------------
     DENSITY MATRIX CONV=  1.00E-05

 ITER EX      TOTAL ENERGY        E CHANGE  DENSITY CHANGE    ORB. GRAD 
          ---------------START SECOND ORDER SCF---------------
   1  0     -289.9927106927  -289.9927106927   0.000183136   0.000087109
   2  1     -289.9927107491    -0.0000000564   0.000047262   0.000015349
   3  2     -289.9927107521    -0.0000000030   0.000025119   0.000006469
   4  3     -289.9927107525    -0.0000000004   0.000011581   0.000003200
   5  4     -289.9927107526    -0.0000000001   0.000005458   0.000001202

          -----------------
          DENSITY CONVERGED
          -----------------
     TIME TO FORM FOCK OPERATORS=       0.0 SECONDS (       0.0 SEC/ITER)
     TIME TO SOLVE SCF EQUATIONS=       0.0 SECONDS (       0.0 SEC/ITER)

 FINAL UHF ENERGY IS     -289.9927107526 AFTER   5 ITERATIONS

          --------------------
          SPIN SZ   =    1.000
          S-SQUARED =    2.005
          --------------------
 ...... END OF UHF CALCULATION ......
 STEP CPU TIME =     0.00 TOTAL CPU TIME =          0.0 (      0.0 MIN)
 TOTAL WALL CLOCK TIME=          0.0 SECONDS, CPU UTILIZATION IS    99.44%
 ..... END OF 1-ELECTRON GRADIENT ......
 STEP CPU TIME =     0.00 TOTAL CPU TIME =          0.0 (      0.0 MIN)
 TOTAL WALL CLOCK TIME=          0.0 SECONDS, CPU UTILIZATION IS    99.44%
 ...... END OF 2-ELECTRON GRADIENT ......
 STEP CPU TIME =     0.00 TOTAL CPU TIME =          0.0 (      0.0 MIN)
 TOTAL WALL CLOCK TIME=          0.0 SECONDS, CPU UTILIZATION IS    99.49%

          NSERCH=  4     ENERGY=    -289.9927108

                                 -----------------------
                                 GRADIENT (HARTREE/BOHR)
                                 -----------------------
        ATOM     ZNUC       DE/DX         DE/DY         DE/DZ
 --------------------------------------------------------------
    1  SI          14.0     0.0000000     0.0000000     0.0000024
    2  H            1.0     0.0000000     0.0000008    -0.0000012
    3  H            1.0     0.0000000    -0.0000008    -0.0000012

          MAXIMUM GRADIENT = 0.0000024    RMS GRADIENT = 0.0000010

 NSERCH:   4  E=     -289.9927107526  GRAD. MAX=  0.0000024  R.M.S.=  0.0000010


      ***** EQUILIBRIUM GEOMETRY LOCATED *****
 COORDINATES OF ALL ATOMS ARE (ANGS)
   ATOM   CHARGE       X              Y              Z
 ------------------------------------------------------------
 SI         14.0   0.0000000000   0.0000000000   0.0960370902
 H           1.0   0.0000000000   1.2653136681  -0.6663475451
 H           1.0   0.0000000000  -1.2653136681  -0.6663475451

          INTERNUCLEAR DISTANCES (ANGS.)
          ------------------------------

                1 SI         2 H          3 H     

   1 SI      0.0000000    1.4772437 *  1.4772437 *
   2 H       1.4772437 *  0.0000000    2.5306273 *
   3 H       1.4772437 *  2.5306273 *  0.0000000  

  * ... LESS THAN  3.000


          NUCLEAR ENERGY    =       10.2392502304
          ELECTRONIC ENERGY =     -300.2319609830
          TOTAL ENERGY      =     -289.9927107526

          SPIN SZ   =   1.000
          S-SQUARED =   2.005

          ------------------
          MOLECULAR ORBITALS
          ------------------

          **** ALPHA SET **** 

                      1          2          3          4          5
                  -68.7894    -6.1489    -4.2598    -4.2565    -4.2484
                     A          A          A          A          A   
    1  SI 1  S    0.996855  -0.268308   0.000000   0.001408   0.000000
    2  SI 1  S    0.012502   1.030797   0.000000  -0.005425   0.000000
    3  SI 1  X    0.000000   0.000000  -0.995307   0.000000   0.000000
    4  SI 1  Y    0.000000   0.000000   0.000000   0.000000  -0.994846
    5  SI 1  Z    0.000016   0.005604   0.000000   0.994988   0.000000
    6  SI 1  S   -0.016897   0.003752   0.000000  -0.002403   0.000000
    7  SI 1  X    0.000000   0.000000  -0.017835   0.000000   0.000000
    8  SI 1  Y    0.000000   0.000000   0.000000   0.000000  -0.019567
    9  SI 1  Z    0.000005  -0.000041   0.000000   0.019004   0.000000
   10  SI 1  S    0.001878  -0.001592   0.000000  -0.000600   0.000000
   11  SI 1  X    0.000000   0.000000   0.004152   0.000000   0.000000
   12  SI 1  Y    0.000000   0.000000   0.000000   0.000000   0.003731
   13  SI 1  Z    0.000077  -0.000007   0.000000  -0.004113   0.000000
   14  SI 1 XX    0.005960   0.003150   0.000000   0.000733   0.000000
   15  SI 1 YY    0.005931   0.002704   0.000000  -0.000067   0.000000
   16  SI 1 ZZ    0.005951   0.003085   0.000000   0.001833   0.000000
   17  SI 1 XY    0.000000   0.000000   0.000000   0.000000   0.000000
   18  SI 1 XZ    0.000000   0.000000  -0.000896   0.000000   0.000000
   19  SI 1 YZ    0.000000   0.000000   0.000000   0.000000   0.000193
   20  H  2  S   -0.000044   0.000357   0.000000  -0.000501  -0.000841
   21  H  2  S    0.000150  -0.000089   0.000000   0.000768   0.001022
   22  H  3  S   -0.000044   0.000357   0.000000  -0.000501   0.000841
   23  H  3  S    0.000150  -0.000089   0.000000   0.000768  -0.001022

                      6          7          8          9         10
                   -0.7284    -0.5093    -0.3889    -0.3047     0.1568
                     A          A          A          A          A   
    1  SI 1  S    0.057070   0.000000  -0.021108   0.000000   0.000000
    2  SI 1  S   -0.276546   0.000000   0.096953   0.000000   0.000000
    3  SI 1  X    0.000000   0.000000   0.000000  -0.226239   0.000000
    4  SI 1  Y    0.000000   0.170413   0.000000   0.000000   0.051025
    5  SI 1  Z    0.017534   0.000000   0.198942   0.000000   0.000000
    6  SI 1  S    0.580216   0.000000  -0.279785   0.000000   0.000000
    7  SI 1  X    0.000000   0.000000   0.000000   0.680256   0.000000
    8  SI 1  Y    0.000000  -0.438837   0.000000   0.000000  -0.162496
    9  SI 1  Z   -0.022480   0.000000  -0.571095   0.000000   0.000000
   10  SI 1  S    0.211601   0.000000  -0.303789   0.000000   0.000000
   11  SI 1  X    0.000000   0.000000   0.000000   0.436851   0.000000
   12  SI 1  Y    0.000000  -0.051066   0.000000   0.000000  -1.539580
   13  SI 1  Z    0.007245   0.000000  -0.216135   0.000000   0.000000
   14  SI 1 XX    0.005415   0.000000  -0.051778   0.000000   0.000000
   15  SI 1 YY    0.034507   0.000000   0.077343   0.000000   0.000000
   16  SI 1 ZZ    0.018657   0.000000  -0.036777   0.000000   0.000000
   17  SI 1 XY    0.000000   0.000000   0.000000   0.000000   0.000000
   18  SI 1 XZ    0.000000   0.000000   0.000000   0.032506   0.000000
   19  SI 1 YZ    0.000000   0.091653   0.000000   0.000000  -0.129835
   20  H  2  S    0.155405  -0.230720   0.142037   0.000000   0.087012
   21  H  2  S    0.099139  -0.265112   0.231711   0.000000   0.969865
   22  H  3  S    0.155405   0.230720   0.142037   0.000000  -0.087012
   23  H  3  S    0.099139   0.265112   0.231711   0.000000  -0.969865

                     11         12         13         14         15
                    0.1668     0.2461     0.3271     0.3406     0.3515
                     A          A          A          A          A   
    1  SI 1  S   -0.015056  -0.057872   0.000000  -0.007803   0.000000
    2  SI 1  S    0.089408   0.076784   0.000000   0.032481   0.000000
    3  SI 1  X    0.000000   0.000000   0.255320   0.000000   0.000000
    4  SI 1  Y    0.000000   0.000000   0.000000   0.000000  -0.286513
    5  SI 1  Z   -0.035052   0.002836   0.000000  -0.273446   0.000000
    6  SI 1  S   -0.119506  -1.528578   0.000000  -0.095451   0.000000
    7  SI 1  X    0.000000   0.000000  -1.214186   0.000000   0.000000
    8  SI 1  Y    0.000000   0.000000   0.000000   0.000000   1.345104
    9  SI 1  Z    0.085143  -0.041762   0.000000   1.284633   0.000000
   10  SI 1  S   -1.346433   1.899584   0.000000  -0.393094   0.000000
   11  SI 1  X    0.000000   0.000000   1.270436   0.000000   0.000000
   12  SI 1  Y    0.000000   0.000000   0.000000   0.000000  -0.734456
   13  SI 1  Z    1.130105   0.025610   0.000000  -0.956942   0.000000
   14  SI 1 XX   -0.138041  -0.066593   0.000000  -0.092069   0.000000
   15  SI 1 YY    0.115598  -0.077534   0.000000   0.008877   0.000000
   16  SI 1 ZZ   -0.016023  -0.078583   0.000000   0.020403   0.000000
   17  SI 1 XY    0.000000   0.000000   0.000000   0.000000   0.000000
   18  SI 1 XZ    0.000000   0.000000  -0.041463   0.000000   0.000000
   19  SI 1 YZ    0.000000   0.000000   0.000000   0.000000   0.088308
   20  H  2  S    0.123459   0.000200   0.000000   0.014356   0.004748
   21  H  2  S    1.054577  -0.111755   0.000000   0.388382  -0.434744
   22  H  3  S    0.123459   0.000200   0.000000   0.014356  -0.004748
   23  H  3  S    1.054577  -0.111755   0.000000   0.388382   0.434744

                     16         17         18         19
                    0.6708     0.6734     0.6799     0.7983
                     A          A          A          A   
    1  SI 1  S    0.000000   0.000429   0.000000   0.000000
    2  SI 1  S    0.000000  -0.000567   0.000000   0.000000
    3  SI 1  X   -0.017073   0.000000   0.000000   0.000000
    4  SI 1  Y    0.000000   0.000000   0.000000   0.000909
    5  SI 1  Z    0.000000  -0.017013   0.000000   0.000000
    6  SI 1  S    0.000000   0.015785   0.000000   0.000000
    7  SI 1  X    0.072573   0.000000   0.000000   0.000000
    8  SI 1  Y    0.000000   0.000000   0.000000   0.167216
    9  SI 1  Z    0.000000   0.079504   0.000000   0.000000
   10  SI 1  S    0.000000  -0.102516   0.000000   0.000000
   11  SI 1  X   -0.038533   0.000000   0.000000   0.000000
   12  SI 1  Y    0.000000   0.000000   0.000000   1.010998
   13  SI 1  Z    0.000000   0.002380   0.000000   0.000000
   14  SI 1 XX    0.000000   0.644381   0.000000   0.000000
   15  SI 1 YY    0.000000   0.330944   0.000000   0.000000
   16  SI 1 ZZ    0.000000  -0.984618   0.000000   0.000000
   17  SI 1 XY    0.000000   0.000000   1.000000   0.000000
   18  SI 1 XZ   -0.998611   0.000000   0.000000   0.000000
   19  SI 1 YZ    0.000000   0.000000   0.000000  -0.970028
   20  H  2  S    0.000000  -0.015287   0.000000   0.291747
   21  H  2  S    0.000000   0.086196   0.000000  -1.291743
   22  H  3  S    0.000000  -0.015287   0.000000  -0.291747
   23  H  3  S    0.000000   0.086196   0.000000   1.291743

          **** BETA SET ****

                      1          2          3          4          5
                  -68.7781    -6.1320    -4.2411    -4.2340    -4.2306
                     A          A          A          A          A   
    1  SI 1  S    0.996879  -0.268162   0.000000  -0.000293   0.000000
    2  SI 1  S    0.012407   1.030419   0.000000   0.001073   0.000000
    3  SI 1  X    0.000000   0.000000   0.000000   0.000000  -0.995283
    4  SI 1  Y    0.000000   0.000000  -0.995094   0.000000   0.000000
    5  SI 1  Z    0.000004  -0.001499   0.000000   0.995061   0.000000
    6  SI 1  S   -0.016633   0.009442   0.000000   0.005613   0.000000
    7  SI 1  X    0.000000   0.000000   0.000000   0.000000  -0.018122
    8  SI 1  Y    0.000000   0.000000  -0.018657   0.000000   0.000000
    9  SI 1  Z    0.000020   0.000036   0.000000   0.018911   0.000000
   10  SI 1  S    0.001851  -0.002485   0.000000  -0.001679   0.000000
   11  SI 1  X    0.000000   0.000000   0.000000   0.000000   0.004943
   12  SI 1  Y    0.000000   0.000000   0.003703   0.000000   0.000000
   13  SI 1  Z    0.000071  -0.000208   0.000000  -0.004665   0.000000
   14  SI 1 XX    0.005883  -0.000032   0.000000  -0.001721   0.000000
   15  SI 1 YY    0.005833   0.000803   0.000000  -0.002548   0.000000
   16  SI 1 ZZ    0.005868   0.000301   0.000000  -0.002616   0.000000
   17  SI 1 XY    0.000000   0.000000   0.000000   0.000000   0.000000
   18  SI 1 XZ    0.000000   0.000000   0.000000   0.000000   0.000434
   19  SI 1 YZ    0.000000   0.000000   0.001111   0.000000   0.000000
   20  H  2  S   -0.000040   0.000315  -0.000947  -0.000664   0.000000
   21  H  2  S    0.000148  -0.000068   0.000974   0.000722   0.000000
   22  H  3  S   -0.000040   0.000315   0.000947  -0.000664   0.000000
   23  H  3  S    0.000148  -0.000068  -0.000974   0.000722   0.000000

                      6          7          8          9         10
                   -0.6281    -0.4855     0.0264     0.0725     0.1971
                     A          A          A          A          A   
    1  SI 1  S    0.049153   0.000000  -0.026111   0.000000   0.000000
    2  SI 1  S   -0.240461   0.000000   0.140902   0.000000   0.000000
    3  SI 1  X    0.000000   0.000000   0.000000  -0.144941   0.000000
    4  SI 1  Y    0.000000  -0.166710   0.000000   0.000000   0.008673
    5  SI 1  Z    0.065825   0.000000   0.130898   0.000000   0.000000
    6  SI 1  S    0.493312   0.000000  -0.239640   0.000000   0.000000
    7  SI 1  X    0.000000   0.000000   0.000000   0.312209   0.000000
    8  SI 1  Y    0.000000   0.424697   0.000000   0.000000   0.031010
    9  SI 1  Z   -0.169048   0.000000  -0.273714   0.000000   0.000000
   10  SI 1  S    0.098015   0.000000  -0.476695   0.000000   0.000000
   11  SI 1  X    0.000000   0.000000   0.000000   0.775630   0.000000
   12  SI 1  Y    0.000000   0.045980   0.000000   0.000000  -1.664659
   13  SI 1  Z    0.014239   0.000000  -0.531571   0.000000   0.000000
   14  SI 1 XX   -0.050324   0.000000  -0.016396   0.000000   0.000000
   15  SI 1 YY    0.085718   0.000000  -0.001571   0.000000   0.000000
   16  SI 1 ZZ   -0.004477   0.000000   0.019570   0.000000   0.000000
   17  SI 1 XY    0.000000   0.000000   0.000000   0.000000   0.000000
   18  SI 1 XZ    0.000000   0.000000   0.000000  -0.026823   0.000000
   19  SI 1 YZ    0.000000  -0.100317   0.000000   0.000000  -0.080808
   20  H  2  S    0.189924   0.233766   0.090927   0.000000   0.076617
   21  H  2  S    0.184663   0.272670   0.177880   0.000000   0.931017
   22  H  3  S    0.189924  -0.233766   0.090927   0.000000  -0.076617
   23  H  3  S    0.184663  -0.272670   0.177880   0.000000  -0.931017

                     11         12         13         14         15
                    0.2127     0.2849     0.3892     0.4125     0.4202
                     A          A          A          A          A   
    1  SI 1  S    0.016259  -0.061482   0.000000  -0.011139   0.000000
    2  SI 1  S   -0.116711   0.101529   0.000000   0.017185   0.000000
    3  SI 1  X    0.000000   0.000000   0.000000   0.000000   0.308949
    4  SI 1  Y    0.000000   0.000000   0.291570   0.000000   0.000000
    5  SI 1  Z    0.011805  -0.047077   0.000000   0.301921   0.000000
    6  SI 1  S    0.049792  -1.520292   0.000000  -0.277053   0.000000
    7  SI 1  X    0.000000   0.000000   0.000000   0.000000  -1.356743
    8  SI 1  Y    0.000000   0.000000  -1.367562   0.000000   0.000000
    9  SI 1  Z   -0.020719   0.214874   0.000000  -1.349425   0.000000
   10  SI 1  S    1.635704   1.549995   0.000000   0.682872   0.000000
   11  SI 1  X    0.000000   0.000000   0.000000   0.000000   1.097342
   12  SI 1  Y    0.000000   0.000000   0.431462   0.000000   0.000000
   13  SI 1  Z   -1.119636  -0.074369   0.000000   0.863932   0.000000
   14  SI 1 XX    0.055931  -0.076353   0.000000   0.007364   0.000000
   15  SI 1 YY   -0.098951  -0.094455   0.000000  -0.089150   0.000000
   16  SI 1 ZZ    0.046944  -0.095658   0.000000   0.052105   0.000000
   17  SI 1 XY    0.000000   0.000000   0.000000   0.000000   0.000000
   18  SI 1 XZ    0.000000   0.000000   0.000000   0.000000   0.040523
   19  SI 1 YZ    0.000000   0.000000  -0.041933   0.000000   0.000000
   20  H  2  S   -0.119453   0.012853  -0.011980   0.011338   0.000000
   21  H  2  S   -1.116337   0.131865   0.652158  -0.353211   0.000000
   22  H  3  S   -0.119453   0.012853   0.011980   0.011338   0.000000
   23  H  3  S   -1.116337   0.131865  -0.652158  -0.353211   0.000000

                     16         17         18         19
                    0.7587     0.7739     0.7915     0.8349
                     A          A          A          A   
    1  SI 1  S    0.000000  -0.002158   0.000000   0.000000
    2  SI 1  S    0.000000   0.005194   0.000000   0.000000
    3  SI 1  X    0.000000   0.000000   0.015994   0.000000
    4  SI 1  Y    0.000000   0.000000   0.000000  -0.022474
    5  SI 1  Z    0.000000   0.020284   0.000000   0.000000
    6  SI 1  S    0.000000  -0.055285   0.000000   0.000000
    7  SI 1  X    0.000000   0.000000  -0.063437   0.000000
    8  SI 1  Y    0.000000   0.000000   0.000000  -0.070412
    9  SI 1  Z    0.000000  -0.107647   0.000000   0.000000
   10  SI 1  S    0.000000   0.397521   0.000000   0.000000
   11  SI 1  X    0.000000   0.000000   0.023693   0.000000
   12  SI 1  Y    0.000000   0.000000   0.000000  -0.993814
   13  SI 1  Z    0.000000  -0.138560   0.000000   0.000000
   14  SI 1 XX    0.000000   0.425892   0.000000   0.000000
   15  SI 1 YY    0.000000   0.582278   0.000000   0.000000
   16  SI 1 ZZ    0.000000  -0.985262   0.000000   0.000000
   17  SI 1 XY    1.000000   0.000000   0.000000   0.000000
   18  SI 1 XZ    0.000000   0.000000  -0.998818   0.000000
   19  SI 1 YZ    0.000000   0.000000   0.000000   0.966913
   20  H  2  S    0.000000   0.054308   0.000000  -0.309572
   21  H  2  S    0.000000  -0.343713   0.000000   1.237696
   22  H  3  S    0.000000   0.054308   0.000000   0.309572
   23  H  3  S    0.000000  -0.343713   0.000000  -1.237696

     ----------------------------------------------------------------
     PROPERTY VALUES FOR THE UHF   SELF-CONSISTENT FIELD WAVEFUNCTION
     ----------------------------------------------------------------

          -----------------
          ENERGY COMPONENTS
          -----------------

         WAVEFUNCTION NORMALIZATION =       1.0000000000

                ONE ELECTRON ENERGY =    -422.1001100897
                TWO ELECTRON ENERGY =     121.8681491067
           NUCLEAR REPULSION ENERGY =      10.2392502304
                                      ------------------
                       TOTAL ENERGY =    -289.9927107526

 ELECTRON-ELECTRON POTENTIAL ENERGY =     121.8681491067
  NUCLEUS-ELECTRON POTENTIAL ENERGY =    -712.0065091841
   NUCLEUS-NUCLEUS POTENTIAL ENERGY =      10.2392502304
                                      ------------------
             TOTAL POTENTIAL ENERGY =    -579.8991098469
               TOTAL KINETIC ENERGY =     289.9063990943
                 VIRIAL RATIO (V/T) =       2.0002977225

  ...... PI ENERGY ANALYSIS ......

 ENERGY ANALYSIS:
            FOCK ENERGY=   -178.3638096185
          BARE H ENERGY=   -422.1001100897
     ELECTRONIC ENERGY =   -300.2319598541
         KINETIC ENERGY=    289.9063990943
          N-N REPULSION=     10.2392502304
           TOTAL ENERGY=   -289.9927096237
        SIGMA PART(1+2)=   -269.7557071159
               (K,V1,2)=    264.5484130283   -634.4911314961    100.1870113518
           PI PART(1+2)=    -30.4762527381
               (K,V1,2)=     25.3579860660    -77.5153776880     21.6811388838
  SIGMA SKELETON, ERROR=   -259.5164568855     -0.0000000000
             MIXED PART= 0.00000E+00 0.00000E+00 0.00000E+00 0.00000E+00
 ...... END OF PI ENERGY ANALYSIS ......

          ---------------------------------------
          MULLIKEN AND LOWDIN POPULATION ANALYSES
          ---------------------------------------

     ATOMIC MULLIKEN POPULATION IN EACH MOLECULAR ORBITAL
        ALPHA ORBITALS

                      1          2          3          4          5

                  1.000000   1.000000   1.000000   1.000000   1.000000

    1             0.999995   1.000009   1.000000   1.000035   1.000066
    2             0.000002  -0.000004   0.000000  -0.000018  -0.000033
    3             0.000002  -0.000004   0.000000  -0.000018  -0.000033

                      6          7          8          9

                  1.000000   1.000000   1.000000   1.000000

    1             0.744309   0.421252   0.779565   1.000000
    2             0.127845   0.289374   0.110218   0.000000
    3             0.127845   0.289374   0.110218   0.000000

     ATOMIC MULLIKEN POPULATION IN EACH MOLECULAR ORBITAL
         BETA ORBITALS

                      1          2          3          4          5

                  1.000000   1.000000   1.000000   1.000000   1.000000

    1             0.999996   1.000005   1.000055   1.000026   1.000000
    2             0.000002  -0.000002  -0.000027  -0.000013   0.000000
    3             0.000002  -0.000002  -0.000027  -0.000013   0.000000

                      6          7

                  1.000000   1.000000

    1             0.557920   0.406308
    2             0.221040   0.296846
    3             0.221040   0.296846

     ATOMIC SPIN POPULATION (ALPHA MINUS BETA)
       ATOM         MULL.POP.                    LOW.POP.
    1 SI            1.980930                     1.948700
    2 H             0.009535                     0.025650
    3 H             0.009535                     0.025650


          ********* ALL ELECTRONS ********

               ----- POPULATIONS IN EACH AO -----
                             MULLIKEN      LOWDIN
              1  SI 1  S      1.99914     1.99875
              2  SI 1  S      2.00032     1.97725
              3  SI 1  X      1.99323     1.96732
              4  SI 1  Y      1.99395     1.96983
              5  SI 1  Z      1.99272     1.96505
              6  SI 1  S      0.97389     0.45878
              7  SI 1  X      0.62655     0.61293
              8  SI 1  Y      0.70175     0.62037
              9  SI 1  Z      0.54310     0.51394
             10  SI 1  S      0.31230     0.35236
             11  SI 1  X      0.37916     0.41869
             12  SI 1  Y      0.07197     0.26985
             13  SI 1  Z      0.16282     0.26288
             14  SI 1 XX     -0.00730     0.15289
             15  SI 1 YY      0.08733     0.26141
             16  SI 1 ZZ      0.01755     0.18302
             17  SI 1 XY      0.00000     0.00000
             18  SI 1 XZ      0.00106     0.00106
             19  SI 1 YZ      0.06001     0.06927
             20  H  2  S      0.47586     0.46488
             21  H  2  S      0.56937     0.50730
             22  H  3  S      0.47586     0.46488
             23  H  3  S      0.56937     0.50730

          ----- MULLIKEN ATOMIC OVERLAP POPULATIONS -----
          (OFF-DIAGONAL ELEMENTS NEED TO BE MULTIPLIED BY 2)

             1           2           3

    1   13.2082548
    2    0.3506426   0.7047712
    3    0.3506426  -0.0101838   0.7047712

          TOTAL MULLIKEN AND LOWDIN ATOMIC POPULATIONS
       ATOM         MULL.POP.    CHARGE          LOW.POP.     CHARGE
    1 SI           13.909540    0.090460        14.055644   -0.055644
    2 H             1.045230   -0.045230         0.972178    0.027822
    3 H             1.045230   -0.045230         0.972178    0.027822

          -------------------------------
          BOND ORDER AND VALENCE ANALYSIS     BOND ORDER THRESHOLD=0.050
          -------------------------------

                   BOND                       BOND                       BOND
  ATOM PAIR DIST  ORDER      ATOM PAIR DIST  ORDER      ATOM PAIR DIST  ORDER
    1   2  1.477  0.965        1   3  1.477  0.965

                       TOTAL       BONDED        FREE
      ATOM            VALENCE     VALENCE     VALENCE
    1 SI                3.762       1.929       1.832
    2 H                 0.976       0.975       0.000
    3 H                 0.976       0.975       0.000

          -----------------------------------------
          ATOMIC SPIN DENSITY AT THE NUCLEUS (A.U.)
          -----------------------------------------
                            SPIN DENS    ALPHA DENS     BETA DENS
    1  SI          14.0     1.0339123     826.99219     825.95828
    2  H            1.0     0.0121855       0.19035       0.17816
    3  H            1.0     0.0121855       0.19035       0.17816

          ---------------------
          ELECTROSTATIC MOMENTS
          ---------------------

 POINT   1           X           Y           Z (BOHR)    CHARGE
                 0.000000    0.000000    0.084662       -0.00 (A.U.)
         DX          DY          DZ         /D/  (DEBYE)
    -0.000000   -0.000000    0.244326    0.244326
 ...... END OF PROPERTY EVALUATION ......
 STEP CPU TIME =     0.00 TOTAL CPU TIME =          0.1 (      0.0 MIN)
 TOTAL WALL CLOCK TIME=          0.1 SECONDS, CPU UTILIZATION IS    99.50%
  $VIB   
          IVIB=   0 IATOM=   0 ICOORD=   0 E=     -289.9927107526
  0.000000000E+00 0.000000000E+00 2.389622853E-06 0.000000000E+00 8.153437089E-07
 -1.194809921E-06 0.000000000E+00-8.153436967E-07-1.194809922E-06
 -6.319571890E-17-2.776776302E-13 2.443262087E-01
 ......END OF GEOMETRY SEARCH......
 STEP CPU TIME =     0.00 TOTAL CPU TIME =          0.1 (      0.0 MIN)
 TOTAL WALL CLOCK TIME=          0.1 SECONDS, CPU UTILIZATION IS    99.50%
               988184  WORDS OF DYNAMIC MEMORY USED
 EXECUTION OF GAMESS TERMINATED NORMALLY 19:56:08 20-OCT-2025    
----- accounting info -----
Files used on the parent node Macbooks-MacBook-Pro.local were:
-rw-r--r--  1 macbookpro  staff      289 Oct 20 19:56 /Users/macbookpro/local/gamess/scr/sih2_q0m3_uhf_631g_star.F05
-rw-r--r--  1 macbookpro  staff   180016 Oct 20 19:56 /Users/macbookpro/local/gamess/scr/sih2_q0m3_uhf_631g_star.F08
-rw-r--r--  1 macbookpro  staff  2061360 Oct 20 19:56 /Users/macbookpro/local/gamess/scr/sih2_q0m3_uhf_631g_star.F10
-rw-r--r--  1 macbookpro  staff    66838 Oct 20 19:56 /Users/macbookpro/local/gamess/scr/sih2_q0m3_uhf_631g_star.dat
Mon Oct 20 19:56:08 +07 2025
0.093u 0.052s 0:00.14 100.0%	0+0k 0+0io 46pf+0w
