1 : sio_q0m1_uhf_631g_star.inp
----- GAMESS execution script 'rungms' -----
This job is running on host Macbooks-MacBook-Pro.local
under operating system Darwin at Mon Oct 20 19:56:09 +07 2025
Available scratch disk space (Kbyte units) at beginning of the job is
Filesystem   1024-blocks      Used Available Capacity iused      ifree %iused  Mounted on
/dev/disk3s5   482797652 122175392 339917820    27% 1896406 3399178200    0%   /System/Volumes/Data
GAMESS temporary binary files will be written to /Users/macbookpro/local/gamess/scr
GAMESS supplementary output files will be written to /Users/macbookpro/local/gamess/scr
Copying input file /Users/macbookpro/sq2_data/sio_q0m1_uhf_631g_star.inp to your run's scratch directory...
          *******************************************************
          *                                                     *
          *          GAMESS VERSION = 30 JUN 2023 (R1)          *
          *                                                     *
          *              doi.org/10.1063/5.0005188              *
          *                                                     *
          **************** 64 BIT LINUX VERSION *****************

  GAMESS HAS BEEN MADE POSSIBLE WITH IMPORTANT CONTRIBUTIONS FROM
  THE FOLLOWING INDIVIDUALS (IN ALPHABETICAL ORDER):

     IVANA ADAMOVIC, CHRISTINE AIKENS, TOMOKO AKAMA,
     MELISA ALKAN, YURI ALEXEEV, YURIKO AOKI, POOJA ARORA,
     TOSHIO ASADA, ANDREY ASADCHEV, KIM K. BALDRIDGE,
     PRADIPTA BANDYOPADHYAY, TAYLOR A. BARNES, MARIA BARYSZ,
     ROB BELL, JONATHAN BENTZ, COLLEEN BERTONI,
     JERRY A. BOATZ, BRETT BODE, KURT BRORSEN, KURT R. BRORSEN,
     LAIMUTIS BYTAUTAS, CALEB CARLIN, LAURA CARRINGTON,
     GALINA CHABAN, BENOIT CHAMPAGNE, WEI CHEN, MAHITO CHIBA,
     DAN CHIPMAN, CHEOL HO CHOI, TANNER CULPITT,
     DIPAYAN DATTA, PAUL DAY, ALBERT DEFUSCO,
     NUWAN DESILVA, J. EMILIANO DEUSTUA,
     TIM DUDLEY, MICHEL DUPUIS, STEVEN T. ELBERT,
     DMITRI FEDOROV, KATHERINE FERRERAS, MICHAEL FILATOV,
     ALEX FINDLATER,GRAHAM FLETCHER, MARK FREITAG,
     CHRISTIAN FRIEDL, DAVID GARMER, 
     IGOR S. GERASIMOV, KURT GLAESEMANN,
     MARK S. GORDON, JEFFREY R. GOUR, FENG LONG GU,
     EMILIE B. GUIDEZ, ANASTASIA GUNINA, SHARON HAMMES-SCHIFFER,
     MASATAKE HARUTA, KIMIHIKO HIRAO, YASUHIRO IKABATA,
     TZVETELIN IORDANOV, STEPHAN IRLE, KAZUYA ISHIMURA,
     JOE IVANIC, FRANK JENSEN, JAN H. JENSEN, VISVALDAS KAIRYS,
     MUNEAKI KAMIYA, MICHIO KATOUDA, NAOAKI KAWAKAMI, DAN KEMP,
     BERNARD KIRTMAN, KAZUO KITAURA, MARIUSZ KLOBUKOWSKI,
     MASATO KOBAYASHI, KONSTANTIN KOMAROV, PRAKASHAN KORAMBATH,
     JACEK KORCHOWIEC, SHIRO KOSEKI, KAROL KOWALSKI,
     JIMMY KROMANN, STANISLAW A. KUCHARSKI, HENRY KURTZ,
     SAROM SOK LEANG, SEUNGHOON LEE, HUI LI, SHUHUA LI, WEI LI,
     JESSE J. LUTZ, ALEKSANDR O. LYKHIN,
     ILIAS MAGOULAS, MARCIN MAKOWSKI,
     JOANI MATO, NIKITA MATSUNAGA, BENEDETTA MENNUCCI,
     GRANT MERRILL, NORIYUKI MINEZAWA, VLADIMIR MIRONOV,
     EISAKU MIYOSHI, JOHN A. MONTGOMERY JR., HIROTOSHI MORI,
     JONATHAN MULLIN, MONIKA MUSIAL, SHIGERU NAGASE,
     TAKESHI NAGATA, HIROMI NAKAI, TAKAHITO NAKAJIMA,
     YUYA NAKAJIMA, HARUYUKI NAKANO, HIROYA NAKATA, SEAN NEDD,
     HEATHER NETZLOFF, KIET A. NGUYEN, YOSHIO NISHIMOTO,
     BOSILJKA NJEGIC, RYAN OLSON, MIKE PAK, ROBERTO PEVERATI,
     BUU PHAM, PIOTR PIECUCH, ANNA POMOGAEVA, DAVID POOLE,
     SPENCER PRUITT, OLIVIER QUINET, LUKE ROSKOP,
     KLAUS RUEDENBERG, ANDREW SAND, TOSAPORN SATTASATHUCHANA,
     NOZOMI SAWADA, MICHAEL W. SCHMIDT, PATRICK E. SCHNEIDER,
     JUNJI SEINO, PRACHI SHARMA, JUN SHEN, JIM SHOEMAKER,
     YINAN SHU, DEJUN SI, JONATHAN SKONE, LYUDMILA SLIPCHENKO,
     TONY SMITH, JIE SONG, MARK SPACKMAN, CASPER STEINMANN,
     WALT STEVENS, PEIFENG SU, SHUJUN SU, CHET SWALINA,
     CHINAMI TAKASHIMA, TETSUYA TAKETSUGU, ZHEN TAO,
     NANDUN THELLAMUREGE, SEIKEN TOKURA, JACOPO TOMASI,
     TSUGUKI TOUMA, TAKAO TSUNEDA, HIROAKI UMEDA,
     JORGE LUIS GALVEZ VALLEJO, YALI WANG, SIMON WEBB,
     AARON WEST, THERESA L. WINDUS, MARTA WLOCH,
     PENG XU, KIYOSHI YAGI, SUSUMU YANAGISAWA, YANG YANG,
     SOOHAENG YOO, TAKESHI YOSHIKAWA, FEDERICO ZAHARIEV,
     TOBY ZENG

  WHO ARE SUPPORTED BY THEIR INSTITUTION/UNIVERSITY/COMPANY/GROUP
  (IN ALPHABETICAL ORDER):

     EP ANALYTICS,
     FACULTES UNIVERSITAIRES NOTRE-DAME DE LA PAIX,
     INSTITUTE FOR MOLECULAR SCIENCE, IOWA STATE UNIVERSITY,
     JACKSON STATE UNIVERSITY, JOHANNES KEPLER UNIVERSITY LINZ,
     KYUNGPOOK NATIONAL UNIVERSITY
     KYUSHU UNIVERSITY, MICHIGAN STATE UNIVERSITY,
     MIE UNIVERSITY, THE MOLECULAR SCIENCES SOFTWARE INSTITUTE,
     MOSCOW STATE UNIVERSITY,
     N. COPERNICUS UNIVERSITY, NAGOYA UNIVERSITY,
     NANJING UNIVERSITY, NAT. INST. OF ADVANCED INDUSTRIAL
     SCIENCE AND TECHNOLOGY, NATIONAL INST. OF STANDARDS AND
     TECHNOLOGY, NESMEYANOV INSTITUTE OF ORGANOELEMENT COMPOUNDS
     OF RUSSIAN ACADEMY OF SCIENCES, OSAKA PREFECTURE UNIVERSITY,
     PENNSYLVANIA STATE UNIVERSITY, TOKYO INSTITUTE OF TECHNOLOGY,
     UNIVERSITY OF AARHUS, UNIVERSITY OF ALBERTA,
     UNIVERSITY OF CALIFORNIA AT SANTA BARBARA,
     UNIVERSITY OF COPENHAGEN, UNIVERSITY OF IOWA,
     UNIVERSITY OF MEMPHIS, UNIVERSITY OF MINNESOTA,
     UNIVERSITY OF NEBRASKA, UNIVERSITY OF NEW ENGLAND,
     UNIVERSITY OF NOTRE DAME, UNIVERSITY OF PISA,
     UNIVERSITY OF SILESIA, UNIVERSITY OF TOKYO,
     UNIVERSITY OF ZURICH, WASEDA UNIVERSITY,
     YALE UNIVERSITY

  GAMESS SOFTWARE MANAGEMENT TEAM FOR THIS RELEASE:
     MARK S. GORDON (TEAM LEAD),
     BRETT BODE (SENIOR ADVISOR),
     GIUSEPPE BARCA,
     COLLEEN BERTONI,
     KRISTOPHER KEIPERT (ADVISOR),
     SAROM S. LEANG (DEVELOPMENT LEAD),
     BUU PHAM,
     JACKSON HAYES (WEBSITE ADMINISTRATOR),
     PENG XU

 EXECUTION OF GAMESS BEGUN 19:56:09 20-OCT-2025    

            ECHO OF THE FIRST FEW INPUT CARDS -
 INPUT CARD> $CONTRL SCFTYP=UHF ICHARG=0 MULT=1                                             
 INPUT CARD> RUNTYP=OPTIMIZE                                                                
 INPUT CARD> $END                                                                           
 INPUT CARD> $BASIS GBASIS=N31 NGAUSS=6 NDFUNC=1 $END                                       
 INPUT CARD> $DATA                                                                          
 INPUT CARD> ... this is comment ...                                                        
 INPUT CARD> C1                                                                             
 INPUT CARD> SI   14   0.00000000   0.00000000   0.56722969                                 
 INPUT CARD> O     8   0.00000000   0.00000000  -0.97981869                                 
 INPUT CARD> $END                                                                           
 INPUT CARD>                                                                                
      1000000 WORDS OF MEMORY AVAILABLE

     BASIS OPTIONS
     -------------
     GBASIS=N31          IGAUSS=       6      POLAR=POPN31  
     NDFUNC=       1     NFFUNC=       0     DIFFSP=       F
     NPFUNC=       0      DIFFS=       F     BASNAM=        


     RUN TITLE
     ---------
  ... this is comment ...                                                        

 THE POINT GROUP OF THE MOLECULE IS C1      
 THE ORDER OF THE PRINCIPAL AXIS IS     0

 ATOM      ATOMIC                      COORDINATES (BOHR)
           CHARGE         X                   Y                   Z
 SI         14.0     0.0000000000        0.0000000000        1.0719086862
 O           8.0     0.0000000000        0.0000000000       -1.8515888417

          INTERNUCLEAR DISTANCES (ANGS.)
          ------------------------------

                1 SI         2 O     

   1 SI      0.0000000    1.5470484 *
   2 O       1.5470484 *  0.0000000  

  * ... LESS THAN  3.000


     ATOMIC BASIS SET
     ----------------
 THE CONTRACTED PRIMITIVE FUNCTIONS HAVE BEEN UNNORMALIZED
 THE CONTRACTED BASIS FUNCTIONS ARE NOW NORMALIZED TO UNITY

  SHELL TYPE  PRIMITIVE        EXPONENT          CONTRACTION COEFFICIENT(S)

 SI        

      1   S       1         16192.1000000    0.001949239405
      1   S       2          2436.0900000    0.014855895466
      1   S       3           556.0010000    0.072568877851
      1   S       4           156.8130000    0.245654925022
      1   S       5            50.1692000    0.486059851646
      1   S       6            17.0300000    0.325719900585

      2   L       7           293.3500000   -0.002829912441    0.004433341604
      2   L       8            70.1173000   -0.036073731114    0.032440211739
      2   L       9            22.4301000   -0.116808100749    0.133719048387
      2   L      10             8.1942500    0.093576880711    0.326780118247
      2   L      11             3.1476800    0.601705518979    0.451139163247
      2   L      12             1.2151500    0.422072364043    0.264105095568

      3   L      13             1.6537000   -0.240599186106   -0.015177406538
      3   L      14             0.5407600    0.073795050368    0.275139118516
      3   L      15             0.2044060    1.040936478740    0.783008337279

      4   L      16             0.0723837    1.000000000000    1.000000000000

      5   D      17             0.3950000    1.000000000000

 O         

      6   S      18          5484.6716600    0.001831074430
      6   S      19           825.2349460    0.013950172200
      6   S      20           188.0469580    0.068445078098
      6   S      21            52.9645000    0.232714335992
      6   S      22            16.8975704    0.470192897984
      6   S      23             5.7996353    0.358520852987

      7   L      24            15.5396162   -0.110777549525    0.070874268231
      7   L      25             3.5999336   -0.148026262701    0.339752839147
      7   L      26             1.0137618    1.130767015354    0.727158577316

      8   L      27             0.2700058    1.000000000000    1.000000000000

      9   D      28             0.8000000    1.000000000000

 TOTAL NUMBER OF BASIS SET SHELLS             =    9
 NUMBER OF CARTESIAN GAUSSIAN BASIS FUNCTIONS =   34
 NUMBER OF ELECTRONS                          =   22
 CHARGE OF MOLECULE                           =    0
 SPIN MULTIPLICITY                            =    1
 NUMBER OF OCCUPIED ORBITALS (ALPHA)          =   11
 NUMBER OF OCCUPIED ORBITALS (BETA )          =   11
 TOTAL NUMBER OF ATOMS                        =    2
 THE NUCLEAR REPULSION ENERGY IS       38.3102769642

 THIS MOLECULE IS RECOGNIZED AS BEING LINEAR,
 ORBITAL LZ DEGENERACY TOLERANCE ETOLLZ= 1.00E-06

     $CONTRL OPTIONS
     ---------------
 SCFTYP=UHF          RUNTYP=OPTIMIZE     EXETYP=RUN     
 MPLEVL=       0     CITYP =NONE         CCTYP =NONE         VBTYP =NONE    
 DFTTYP=NONE         TDDFT =NONE    
 MULT  =       1     ICHARG=       0     NZVAR =       0     COORD =UNIQUE  
 PP    =NONE         RELWFN=NONE         LOCAL =NONE         NUMGRD=       F
 ISPHER=      -1     NOSYM =       0     MAXIT =      30     UNITS =ANGS    
 PLTORB=       F     MOLPLT=       F     AIMPAC=       F     FRIEND=        
 NPRINT=       7     IREST =       0     GEOM  =INPUT   
 NORMF =       0     NORMP =       0     ITOL  =      20     ICUT  =       9
 INTTYP=BEST         GRDTYP=BEST         QMTTOL= 1.0E-06

     $SYSTEM OPTIONS
     ---------------
  REPLICATED MEMORY=     1000000 WORDS (ON EVERY NODE).
 DISTRIBUTED MEMDDI=           0 MILLION WORDS IN AGGREGATE,
 MEMDDI DISTRIBUTED OVER   1 PROCESSORS IS           0 WORDS/PROCESSOR.
 TOTAL MEMORY REQUESTED ON EACH PROCESSOR=     1000000 WORDS.
 TIMLIM=      525600.00 MINUTES, OR     365.0 DAYS.
 PARALL= F  BALTYP=  DLB     KDIAG=    0  COREFL= F
 MXSEQ2=     300 MXSEQ3=     150  mem10=         0  mem22=         0

          ----------------
          PROPERTIES INPUT
          ----------------

     MOMENTS            FIELD           POTENTIAL          DENSITY
 IEMOM =       1   IEFLD =       0   IEPOT =       0   IEDEN =       0
 WHERE =COMASS     WHERE =NUCLEI     WHERE =NUCLEI     WHERE =NUCLEI  
 OUTPUT=BOTH       OUTPUT=BOTH       OUTPUT=BOTH       OUTPUT=BOTH    
 IEMINT=       0   IEFINT=       0                     IEDINT=       0
                                                       MORB  =       0
          EXTRAPOLATION IN EFFECT
          SOSCF IN EFFECT
          DIIS or SOSCF will be reset if energy rises
 ORBITAL PRINTING OPTION: NPREO=     1    34     2     1

     -------------------------------
     INTEGRAL TRANSFORMATION OPTIONS
     -------------------------------
     NWORD  =            0
     CUTTRF = 1.0E-09     MPTRAN =       0
     DIRTRF =       F     AOINTS =DUP     

          ----------------------
          INTEGRAL INPUT OPTIONS
          ----------------------
 NOPK  =       1 NORDER=       0 SCHWRZ=       F

     ------------------------------------------
     THE POINT GROUP IS C1 , NAXIS= 0, ORDER= 1
     ------------------------------------------

     DIMENSIONS OF THE SYMMETRY SUBSPACES ARE
 A   =   34

 ..... DONE SETTING UP THE RUN .....
 STEP CPU TIME =     0.00 TOTAL CPU TIME =          0.0 (      0.0 MIN)
 TOTAL WALL CLOCK TIME=          0.0 SECONDS, CPU UTILIZATION IS    97.38%


          -----------------------------
          STATIONARY POINT LOCATION RUN
          -----------------------------

 OBTAINING INITIAL HESSIAN, HESS=GUESS   
 CARTESIAN COORDINATE OPTIMIZATION USING BADGER'S RULE FORCE CONSTANT GUESS

          PARAMETERS CONTROLLING GEOMETRY SEARCH ARE
          METHOD =QA                  UPHESS =BFGS    
          NNEG   =         0          NFRZ   =         0
          NSTEP  =        50          IFOLOW =         1
          HESS   =GUESS               RESTAR =         F
          IHREP  =         0          HSSEND =         F
          NPRT   =         0          NPUN   =         0
          OPTTOL = 1.000E-04          RMIN   = 1.500E-03
          RMAX   = 1.000E-01          RLIM   = 7.000E-02
          DXMAX  = 3.000E-01          PURIFY =         F
          MOVIE  =         F          TRUPD  =         T
          TRMAX  = 5.000E-01          TRMIN  = 5.000E-02
          ITBMAT =         5          STPT   =         F
          STSTEP = 1.000E-02          PROJCT=          T

 BEGINNING GEOMETRY SEARCH POINT NSERCH=   0 ...

 COORDINATES OF ALL ATOMS ARE (ANGS)
   ATOM   CHARGE       X              Y              Z
 ------------------------------------------------------------
 SI         14.0   0.0000000000   0.0000000000   0.5672296900
 O           8.0   0.0000000000   0.0000000000  -0.9798186900

          ********************
          1 ELECTRON INTEGRALS
          ********************
 ...... END OF ONE-ELECTRON INTEGRALS ......
 STEP CPU TIME =     0.00 TOTAL CPU TIME =          0.0 (      0.0 MIN)
 TOTAL WALL CLOCK TIME=          0.0 SECONDS, CPU UTILIZATION IS    97.64%

          -------------
          GUESS OPTIONS
          -------------
          GUESS =HUCKEL            NORB  =       0          NORDER=       0
          MIX   =       F          PRTMO =       F          PUNMO =       F
          TOLZ  = 1.0E-08          TOLE  = 1.0E-05
          SYMDEN=       F          PURIFY=       F

 INITIAL GUESS ORBITALS GENERATED BY HUCKEL   ROUTINE.
 HUCKEL GUESS REQUIRES     11066 WORDS.

 SYMMETRIES FOR INITIAL GUESS ORBITALS FOLLOW.  ALPHA SET(S).
    11 ORBITALS ARE OCCUPIED (    6 CORE ORBITALS).
     7=A        8=A        9=A       10=A       11=A       12=A       13=A   
    14=A       15=A       16=A       17=A       18=A       19=A       20=A   
    21=A   

 SYMMETRIES FOR INITIAL GUESS ORBITALS FOLLOW.   BETA SET(S).
    11 ORBITALS ARE OCCUPIED (    6 CORE ORBITALS).
     7=A        8=A        9=A       10=A       11=A       12=A       13=A   
    14=A       15=A       16=A       17=A       18=A       19=A       20=A   
    21=A   
 ...... END OF INITIAL ORBITAL SELECTION ......
 STEP CPU TIME =     0.00 TOTAL CPU TIME =          0.0 (      0.0 MIN)
 TOTAL WALL CLOCK TIME=          0.0 SECONDS, CPU UTILIZATION IS    98.02%

                    ----------------------
                    AO INTEGRAL TECHNOLOGY
                    ----------------------
     S,P,L SHELL ROTATED AXIS INTEGRALS, REPROGRAMMED BY
        KAZUYA ISHIMURA (IMS) AND JOSE SIERRA (SYNSTAR).
     S,P,D,L SHELL ROTATED AXIS INTEGRALS PROGRAMMED BY
        KAZUYA ISHIMURA (INSTITUTE FOR MOLECULAR SCIENCE).
     S,P,D,F,G SHELL TO TOTAL QUARTET ANGULAR MOMENTUM SUM 5,
        ERIC PROGRAM BY GRAHAM FLETCHER (ELORET AND NASA ADVANCED
        SUPERCOMPUTING DIVISION, AMES RESEARCH CENTER).
     S,P,D,F,G,L SHELL GENERAL RYS QUADRATURE PROGRAMMED BY
        MICHEL DUPUIS (PACIFIC NORTHWEST NATIONAL LABORATORY).

          --------------------
          2 ELECTRON INTEGRALS
          --------------------

 THE -PK- OPTION IS OFF, THE INTEGRALS ARE NOT IN SUPERMATRIX FORM.
 STORING   15000 INTEGRALS/RECORD ON DISK, USING 12 BYTES/INTEGRAL.
 TWO ELECTRON INTEGRAL EVALUATION REQUIRES   90441 WORDS OF MEMORY.
 II,JST,KST,LST =  1  1  1  1 NREC =         1 INTLOC =    1
 II,JST,KST,LST =  2  1  1  1 NREC =         1 INTLOC =    2
 II,JST,KST,LST =  3  1  1  1 NREC =         1 INTLOC =   34
 II,JST,KST,LST =  4  1  1  1 NREC =         1 INTLOC =  214
 II,JST,KST,LST =  5  1  1  1 NREC =         1 INTLOC =  776
 II,JST,KST,LST =  6  1  1  1 NREC =         1 INTLOC = 2864
 II,JST,KST,LST =  7  1  1  1 NREC =         1 INTLOC = 4069
 II,JST,KST,LST =  8  1  1  1 NREC =         1 INTLOC =10663
 II,JST,KST,LST =  9  1  1  1 NREC =         2 INTLOC = 6286
 TOTAL NUMBER OF NONZERO TWO-ELECTRON INTEGRALS =               46337
          4 INTEGRAL RECORDS WERE STORED ON DISK FILE  8.
  ...... END OF TWO-ELECTRON INTEGRALS .....
 STEP CPU TIME =     0.01 TOTAL CPU TIME =          0.0 (      0.0 MIN)
 TOTAL WALL CLOCK TIME=          0.0 SECONDS, CPU UTILIZATION IS    99.26%

          ---------------------------
                  UHF SCF CALCULATION
          ---------------------------

     NUCLEAR ENERGY =        38.3102769642
     MAXIT = 30     NPUNCH=  2     MULT=  1
     EXTRAP=T  DAMP=F  SHIFT=F  RSTRCT=F  DIIS=F  SOSCF=T
     DENSITY MATRIX CONV=  1.00E-05
     SOSCF WILL OPTIMIZE     253 ALPHA AND     253 BETA ROTATION ANGLES.
     SOGTOL= 2.500E-01
     MEMORY REQUIRED FOR UHF/ROHF ITERS=     45646 WORDS.

 ITER EX      TOTAL ENERGY        E CHANGE  DENSITY CHANGE    ORB. GRAD 
   1  0     -363.3882944850  -363.3882944850   0.988627208   0.000000000
          ---------------START SECOND ORDER SCF---------------
   2  1     -363.7580282986    -0.3697338136   0.135073480   0.052993968
   3  2     -363.7664576328    -0.0084293341   0.040660684   0.031394825
   4  3     -363.7732303914    -0.0067727586   0.007355208   0.002134364
   5  4     -363.7732807878    -0.0000503964   0.001912524   0.000533809
   6  5     -363.7732852548    -0.0000044670   0.000682559   0.000151699
   7  6     -363.7732856840    -0.0000004292   0.000206984   0.000052787
   8  7     -363.7732857350    -0.0000000510   0.000074162   0.000015128
   9  8     -363.7732857392    -0.0000000043   0.000012603   0.000003231
  10  9     -363.7732857394    -0.0000000002   0.000001959   0.000000814
  11 10     -363.7732857395    -0.0000000000   0.000000498   0.000000095

          -----------------
          DENSITY CONVERGED
          -----------------
     TIME TO FORM FOCK OPERATORS=       0.0 SECONDS (       0.0 SEC/ITER)
     TIME TO SOLVE SCF EQUATIONS=       0.0 SECONDS (       0.0 SEC/ITER)

 FINAL UHF ENERGY IS     -363.7732857395 AFTER  11 ITERATIONS

          --------------------
          SPIN SZ   =    0.000
          S-SQUARED =   -0.000
          --------------------

 LZ VALUE ANALYSIS FOR THE MOS
 ----------------------------------------
 MO     1 (    1) HAS LZ(WEIGHT)= 0.00(100.0%) 
 MO     2 (    2) HAS LZ(WEIGHT)= 0.00(100.0%) 
 MO     3 (    3) HAS LZ(WEIGHT)= 0.00(100.0%) 
 MO     4 (    4) HAS LZ(WEIGHT)=-1.00( 50.0%)  1.00( 50.0%) 
 MO     5 (    4) HAS LZ(WEIGHT)=-1.00( 50.0%)  1.00( 50.0%) 
 MO     6 (    5) HAS LZ(WEIGHT)= 0.00(100.0%) 
 MO     7 (    6) HAS LZ(WEIGHT)= 0.00(100.0%) 
 MO     8 (    7) HAS LZ(WEIGHT)= 0.00(100.0%) 
 MO     9 (    8) HAS LZ(WEIGHT)=-1.00( 50.0%)  1.00( 50.0%) 
 MO    10 (    8) HAS LZ(WEIGHT)=-1.00( 50.0%)  1.00( 50.0%) 
 MO    11 (    9) HAS LZ(WEIGHT)= 0.00(100.0%) 
 MO    12 (   10) HAS LZ(WEIGHT)=-1.00( 50.0%)  1.00( 50.0%) 
 MO    13 (   10) HAS LZ(WEIGHT)=-1.00( 50.0%)  1.00( 50.0%) 
 MO    14 (   11) HAS LZ(WEIGHT)= 0.00(100.0%) 
 MO    15 (   12) HAS LZ(WEIGHT)= 0.00(100.0%) 
 MO    16 (   13) HAS LZ(WEIGHT)=-1.00( 50.0%)  1.00( 50.0%) 
 MO    17 (   13) HAS LZ(WEIGHT)=-1.00( 50.0%)  1.00( 50.0%) 
 MO    18 (   14) HAS LZ(WEIGHT)= 0.00(100.0%) 
 MO    19 (   15) HAS LZ(WEIGHT)=-2.00( 50.0%)  2.00( 50.0%) 
 MO    20 (   15) HAS LZ(WEIGHT)=-2.00( 50.0%)  2.00( 50.0%) 
 MO    21 (   16) HAS LZ(WEIGHT)=-1.00( 50.0%)  1.00( 50.0%) 
 MO    22 (   16) HAS LZ(WEIGHT)=-1.00( 50.0%)  1.00( 50.0%) 
 MO    23 (   17) HAS LZ(WEIGHT)= 0.00(100.0%) 
 MO    24 (   18) HAS LZ(WEIGHT)=-1.00( 50.0%)  1.00( 50.0%) 
 MO    25 (   18) HAS LZ(WEIGHT)=-1.00( 50.0%)  1.00( 50.0%) 
 MO    26 (   19) HAS LZ(WEIGHT)= 0.00(100.0%) 
 MO    27 (   20) HAS LZ(WEIGHT)= 0.00(100.0%) 
 MO    28 (   21) HAS LZ(WEIGHT)=-2.00( 50.0%)  2.00( 50.0%) 
 MO    29 (   21) HAS LZ(WEIGHT)=-2.00( 50.0%)  2.00( 50.0%) 
 MO    30 (   22) HAS LZ(WEIGHT)=-1.00( 50.0%)  1.00( 50.0%) 
 MO    31 (   22) HAS LZ(WEIGHT)=-1.00( 50.0%)  1.00( 50.0%) 
 MO    32 (   23) HAS LZ(WEIGHT)= 0.00(100.0%) 
 MO    33 (   24) HAS LZ(WEIGHT)= 0.00(100.0%) 
 MO    34 (   25) HAS LZ(WEIGHT)= 0.00(100.0%) 

  ----- ALPHA SET ----- 

          ------------
          EIGENVECTORS
          ------------

                      1          2          3          4          5
                  -68.8258   -20.5439    -6.1791    -4.2804    -4.2804
                     A          A          A          A          A   
    1  SI 1  S    0.996876   0.000013  -0.268332  -0.000000  -0.000000
    2  SI 1  S    0.012398  -0.000068   1.031048  -0.000000  -0.000000
    3  SI 1  X   -0.000000  -0.000000   0.000000   0.105697   0.989282
    4  SI 1  Y   -0.000000  -0.000000   0.000000   0.989282  -0.105697
    5  SI 1  Z   -0.000036   0.000026   0.001140  -0.000000  -0.000000
    6  SI 1  S   -0.016757   0.000498   0.002774  -0.000000  -0.000000
    7  SI 1  X   -0.000000  -0.000000   0.000000   0.002063   0.019306
    8  SI 1  Y   -0.000000  -0.000000   0.000000   0.019306  -0.002063
    9  SI 1  Z    0.000174  -0.000362   0.000700  -0.000000  -0.000000
   10  SI 1  S    0.001959  -0.000309  -0.001841  -0.000000  -0.000000
   11  SI 1  X   -0.000000  -0.000000   0.000000  -0.000527  -0.004928
   12  SI 1  Y   -0.000000  -0.000000   0.000000  -0.004928   0.000527
   13  SI 1  Z    0.000025   0.000325  -0.000021  -0.000000  -0.000000
   14  SI 1 XX    0.005894  -0.000116   0.002801  -0.000000  -0.000000
   15  SI 1 YY    0.005894  -0.000116   0.002801  -0.000000  -0.000000
   16  SI 1 ZZ    0.005773  -0.000001   0.001856  -0.000000  -0.000000
   17  SI 1 XY   -0.000000  -0.000000   0.000000  -0.000000  -0.000000
   18  SI 1 XZ   -0.000000  -0.000000   0.000000   0.000057   0.000535
   19  SI 1 YZ   -0.000000  -0.000000   0.000000   0.000535  -0.000057
   20  O  2  S   -0.000003   0.994747  -0.000541  -0.000000  -0.000000
   21  O  2  S   -0.000122   0.020690   0.000603  -0.000000  -0.000000
   22  O  2  X   -0.000000  -0.000000   0.000000   0.000062   0.000584
   23  O  2  Y   -0.000000  -0.000000   0.000000   0.000584  -0.000062
   24  O  2  Z   -0.000131   0.000937   0.001371  -0.000000  -0.000000
   25  O  2  S    0.000277   0.003992   0.001199  -0.000000  -0.000000
   26  O  2  X   -0.000000  -0.000000   0.000000  -0.000026  -0.000246
   27  O  2  Y   -0.000000  -0.000000   0.000000  -0.000246   0.000026
   28  O  2  Z    0.000192  -0.000399   0.000847  -0.000000  -0.000000
   29  O  2 XX    0.000001  -0.003990  -0.000322  -0.000000  -0.000000
   30  O  2 YY    0.000001  -0.003990  -0.000322  -0.000000  -0.000000
   31  O  2 ZZ    0.000059  -0.003901   0.000968  -0.000000  -0.000000
   32  O  2 XY   -0.000000  -0.000000   0.000000  -0.000000  -0.000000
   33  O  2 XZ   -0.000000  -0.000000   0.000000   0.000044   0.000410
   34  O  2 YZ   -0.000000  -0.000000   0.000000   0.000410  -0.000044

                      6          7          8          9         10
                   -4.2792    -1.2487    -0.6048    -0.4605    -0.4605
                     A          A          A          A          A   
    1  SI 1  S    0.000176   0.019859   0.049331   0.000000   0.000000
    2  SI 1  S   -0.000270  -0.098945  -0.236094   0.000000   0.000000
    3  SI 1  X    0.000000   0.000000  -0.000000   0.010433  -0.097502
    4  SI 1  Y    0.000000   0.000000  -0.000000  -0.097502  -0.010433
    5  SI 1  Z    0.995161   0.079799   0.036726   0.000000   0.000000
    6  SI 1  S   -0.000846   0.163959   0.561548   0.000000   0.000000
    7  SI 1  X    0.000000   0.000000  -0.000000  -0.026380   0.246537
    8  SI 1  Y    0.000000   0.000000  -0.000000   0.246537   0.026380
    9  SI 1  Z    0.015631  -0.127242  -0.068473   0.000000   0.000000
   10  SI 1  S   -0.000368   0.005218   0.118162   0.000000   0.000000
   11  SI 1  X    0.000000   0.000000  -0.000000  -0.010598   0.099044
   12  SI 1  Y    0.000000   0.000000  -0.000000   0.099044   0.010598
   13  SI 1  Z   -0.003325   0.015743   0.067036   0.000000   0.000000
   14  SI 1 XX    0.000205  -0.028308  -0.022895   0.000000   0.000000
   15  SI 1 YY    0.000205  -0.028308  -0.022895   0.000000   0.000000
   16  SI 1 ZZ    0.001715   0.052532   0.039694   0.000000   0.000000
   17  SI 1 XY    0.000000   0.000000  -0.000000   0.000000   0.000000
   18  SI 1 XZ    0.000000   0.000000  -0.000000   0.008569  -0.080083
   19  SI 1 YZ    0.000000   0.000000  -0.000000  -0.080083  -0.008569
   20  O  2  S    0.001812  -0.214128   0.073292   0.000000   0.000000
   21  O  2  S   -0.002812   0.486554  -0.163318   0.000000   0.000000
   22  O  2  X    0.000000   0.000000  -0.000000  -0.058370   0.545512
   23  O  2  Y    0.000000   0.000000  -0.000000   0.545512   0.058370
   24  O  2  Z   -0.004725   0.090329   0.447012   0.000000   0.000000
   25  O  2  S   -0.001422   0.429070  -0.321521   0.000000   0.000000
   26  O  2  X    0.000000   0.000000  -0.000000  -0.045638   0.426523
   27  O  2  Y    0.000000   0.000000  -0.000000   0.426523   0.045638
   28  O  2  Z   -0.001919   0.029586   0.248429   0.000000   0.000000
   29  O  2 XX    0.000897   0.002314  -0.001606   0.000000   0.000000
   30  O  2 YY    0.000897   0.002314  -0.001606   0.000000   0.000000
   31  O  2 ZZ   -0.003115   0.027831   0.029792   0.000000   0.000000
   32  O  2 XY    0.000000   0.000000  -0.000000   0.000000   0.000000
   33  O  2 XZ    0.000000   0.000000  -0.000000  -0.003672   0.034317
   34  O  2 YZ    0.000000   0.000000  -0.000000   0.034317   0.003672

                     11         12         13         14         15
                   -0.4331     0.0470     0.0470     0.1518     0.2660
                     A          A          A          A          A   
    1  SI 1  S    0.033712  -0.000000   0.000000  -0.010229  -0.051769
    2  SI 1  S   -0.166360  -0.000000   0.000000   0.069132   0.066705
    3  SI 1  X    0.000000   0.006817  -0.151724  -0.000000  -0.000000
    4  SI 1  Y    0.000000  -0.151724  -0.006817  -0.000000  -0.000000
    5  SI 1  Z   -0.170112  -0.000000   0.000000  -0.045320   0.110163
    6  SI 1  S    0.376163  -0.000000   0.000000  -0.044044  -1.399701
    7  SI 1  X    0.000000  -0.017957   0.399661  -0.000000  -0.000000
    8  SI 1  Y    0.000000   0.399661   0.017957  -0.000000  -0.000000
    9  SI 1  Z    0.468343  -0.000000   0.000000   0.111917  -0.559630
   10  SI 1  S    0.368468  -0.000000   0.000000  -0.615672   1.755382
   11  SI 1  X    0.000000  -0.031815   0.708106  -0.000000  -0.000000
   12  SI 1  Y    0.000000   0.708106   0.031815  -0.000000  -0.000000
   13  SI 1  Z    0.073696  -0.000000   0.000000   1.160678   0.358372
   14  SI 1 XX    0.039192  -0.000000   0.000000  -0.068975  -0.070345
   15  SI 1 YY    0.039192  -0.000000   0.000000  -0.068975  -0.070345
   16  SI 1 ZZ   -0.065825  -0.000000   0.000000   0.108966  -0.008201
   17  SI 1 XY    0.000000  -0.000000   0.000000  -0.000000  -0.000000
   18  SI 1 XZ    0.000000  -0.003643   0.081086  -0.000000  -0.000000
   19  SI 1 YZ    0.000000   0.081086   0.003643  -0.000000  -0.000000
   20  O  2  S   -0.004729  -0.000000   0.000000  -0.079811   0.018163
   21  O  2  S    0.001621  -0.000000   0.000000   0.031798   0.027300
   22  O  2  X    0.000000   0.011425  -0.254285  -0.000000  -0.000000
   23  O  2  Y    0.000000  -0.254285  -0.011425  -0.000000  -0.000000
   24  O  2  Z   -0.365631  -0.000000   0.000000   0.111395   0.070815
   25  O  2  S    0.094685  -0.000000   0.000000   0.961425  -0.366892
   26  O  2  X    0.000000   0.015215  -0.338636  -0.000000  -0.000000
   27  O  2  Y    0.000000  -0.338636  -0.015215  -0.000000  -0.000000
   28  O  2  Z   -0.221504  -0.000000   0.000000   0.136981  -0.046617
   29  O  2 XX    0.001493  -0.000000   0.000000  -0.063949   0.030004
   30  O  2 YY    0.001493  -0.000000   0.000000  -0.063949   0.030004
   31  O  2 ZZ   -0.021096  -0.000000   0.000000  -0.053391   0.008579
   32  O  2 XY    0.000000  -0.000000   0.000000  -0.000000  -0.000000
   33  O  2 XZ    0.000000   0.000221  -0.004922  -0.000000  -0.000000
   34  O  2 YZ    0.000000  -0.004922  -0.000221  -0.000000  -0.000000

                     16         17         18         19         20
                    0.3528     0.3528     0.5266     0.7040     0.7040
                     A          A          A          A          A   
    1  SI 1  S   -0.000000  -0.000000  -0.027412   0.000000   0.000000
    2  SI 1  S   -0.000000  -0.000000   0.044777   0.000000   0.000000
    3  SI 1  X   -0.288313   0.036331  -0.000000   0.000000   0.000000
    4  SI 1  Y   -0.036331  -0.288313  -0.000000   0.000000   0.000000
    5  SI 1  Z   -0.000000  -0.000000  -0.241144   0.000000   0.000000
    6  SI 1  S   -0.000000  -0.000000  -0.717331   0.000000   0.000000
    7  SI 1  X    1.299672  -0.163774  -0.000000   0.000000   0.000000
    8  SI 1  Y    0.163774   1.299672  -0.000000   0.000000   0.000000
    9  SI 1  Z   -0.000000  -0.000000   1.197350   0.000000   0.000000
   10  SI 1  S   -0.000000  -0.000000   0.558821   0.000000   0.000000
   11  SI 1  X   -1.151327   0.145080  -0.000000   0.000000   0.000000
   12  SI 1  Y   -0.145080  -1.151327  -0.000000   0.000000   0.000000
   13  SI 1  Z   -0.000000  -0.000000  -0.931470   0.000000   0.000000
   14  SI 1 XX   -0.000000  -0.000000  -0.254738   0.000222   0.862294
   15  SI 1 YY   -0.000000  -0.000000  -0.254738  -0.000222  -0.862294
   16  SI 1 ZZ   -0.000000  -0.000000   0.443368   0.000000   0.000000
   17  SI 1 XY   -0.000000  -0.000000  -0.000000   0.995691  -0.000256
   18  SI 1 XZ    0.044291  -0.005581  -0.000000   0.000000   0.000000
   19  SI 1 YZ    0.005581   0.044291  -0.000000   0.000000   0.000000
   20  O  2  S   -0.000000  -0.000000  -0.012084   0.000000   0.000000
   21  O  2  S   -0.000000  -0.000000   0.098469   0.000000   0.000000
   22  O  2  X   -0.068142   0.008587  -0.000000   0.000000   0.000000
   23  O  2  Y   -0.008587  -0.068142  -0.000000   0.000000   0.000000
   24  O  2  Z   -0.000000  -0.000000   0.287291   0.000000   0.000000
   25  O  2  S   -0.000000  -0.000000  -0.166703   0.000000   0.000000
   26  O  2  X   -0.032306   0.004071  -0.000000   0.000000   0.000000
   27  O  2  Y   -0.004071  -0.032306  -0.000000   0.000000   0.000000
   28  O  2  Z   -0.000000  -0.000000   0.306242   0.000000   0.000000
   29  O  2 XX   -0.000000  -0.000000   0.029610   0.000009   0.035637
   30  O  2 YY   -0.000000  -0.000000   0.029610  -0.000009  -0.035637
   31  O  2 ZZ   -0.000000  -0.000000   0.001325   0.000000   0.000000
   32  O  2 XY   -0.000000  -0.000000  -0.000000   0.041150  -0.000011
   33  O  2 XZ    0.019123  -0.002410  -0.000000   0.000000   0.000000
   34  O  2 YZ    0.002410   0.019123  -0.000000   0.000000   0.000000

                     21         22         23         24         25
                    0.8029     0.8029     1.0641     1.3030     1.3030
                     A          A          A          A          A   
    1  SI 1  S    0.000000   0.000000  -0.024856  -0.000000  -0.000000
    2  SI 1  S    0.000000   0.000000  -0.037762  -0.000000  -0.000000
    3  SI 1  X    0.000581   0.021084  -0.000000   0.006445   0.002036
    4  SI 1  Y    0.021084  -0.000581  -0.000000  -0.002036   0.006445
    5  SI 1  Z    0.000000   0.000000  -0.171132  -0.000000  -0.000000
    6  SI 1  S    0.000000   0.000000  -0.952673  -0.000000  -0.000000
    7  SI 1  X   -0.002363  -0.085792  -0.000000  -0.108976  -0.034425
    8  SI 1  Y   -0.085792   0.002363  -0.000000   0.034425  -0.108976
    9  SI 1  Z    0.000000   0.000000   1.432795  -0.000000  -0.000000
   10  SI 1  S    0.000000   0.000000   0.162483  -0.000000  -0.000000
   11  SI 1  X   -0.002088  -0.075797  -0.000000  -0.217680  -0.068765
   12  SI 1  Y   -0.075797   0.002088  -0.000000   0.068765  -0.217680
   13  SI 1  Z    0.000000   0.000000  -0.396106  -0.000000  -0.000000
   14  SI 1 XX    0.000000   0.000000   0.375046  -0.000000  -0.000000
   15  SI 1 YY    0.000000   0.000000   0.375046  -0.000000  -0.000000
   16  SI 1 ZZ    0.000000   0.000000  -1.050033  -0.000000  -0.000000
   17  SI 1 XY    0.000000   0.000000  -0.000000  -0.000000  -0.000000
   18  SI 1 XZ    0.027974   1.015595  -0.000000   0.267883   0.084624
   19  SI 1 YZ    1.015595  -0.027974  -0.000000  -0.084624   0.267883
   20  O  2  S    0.000000   0.000000  -0.047068  -0.000000  -0.000000
   21  O  2  S    0.000000   0.000000   0.617521  -0.000000  -0.000000
   22  O  2  X    0.007788   0.282745  -0.000000  -0.906442  -0.286344
   23  O  2  Y    0.282745  -0.007788  -0.000000   0.286344  -0.906442
   24  O  2  Z    0.000000   0.000000  -0.204337  -0.000000  -0.000000
   25  O  2  S    0.000000   0.000000   0.104528  -0.000000  -0.000000
   26  O  2  X    0.005988   0.217385  -0.000000   1.149041   0.362980
   27  O  2  Y    0.217385  -0.005988  -0.000000  -0.362980   1.149041
   28  O  2  Z    0.000000   0.000000   1.578036  -0.000000  -0.000000
   29  O  2 XX    0.000000   0.000000   0.194279  -0.000000  -0.000000
   30  O  2 YY    0.000000   0.000000   0.194279  -0.000000  -0.000000
   31  O  2 ZZ    0.000000   0.000000   0.229655  -0.000000  -0.000000
   32  O  2 XY    0.000000   0.000000  -0.000000  -0.000000  -0.000000
   33  O  2 XZ   -0.001318  -0.047852  -0.000000  -0.079540  -0.025127
   34  O  2 YZ   -0.047852   0.001318  -0.000000   0.025127  -0.079540

                     26         27         28         29         30
                    1.4046     1.4527     2.1446     2.1446     2.3631
                     A          A          A          A          A   
    1  SI 1  S   -0.023601  -0.010088   0.000000   0.000000  -0.000000
    2  SI 1  S    0.114691  -0.117932   0.000000   0.000000  -0.000000
    3  SI 1  X    0.000000  -0.000000   0.000000   0.000000   0.020023
    4  SI 1  Y    0.000000  -0.000000   0.000000   0.000000   0.051287
    5  SI 1  Z   -0.124169  -0.046789   0.000000   0.000000  -0.000000
    6  SI 1  S   -0.562161  -0.802322   0.000000   0.000000  -0.000000
    7  SI 1  X    0.000000  -0.000000   0.000000   0.000000  -0.118515
    8  SI 1  Y    0.000000  -0.000000   0.000000   0.000000  -0.303563
    9  SI 1  Z    0.658848   1.158855   0.000000   0.000000  -0.000000
   10  SI 1  S   -0.412733  -0.566917   0.000000   0.000000  -0.000000
   11  SI 1  X    0.000000  -0.000000   0.000000   0.000000   0.012167
   12  SI 1  Y    0.000000  -0.000000   0.000000   0.000000   0.031164
   13  SI 1  Z    0.267853   0.334962   0.000000   0.000000  -0.000000
   14  SI 1 XX    0.575474   0.080719  -0.000000   0.108699  -0.000000
   15  SI 1 YY    0.575474   0.080719   0.000000  -0.108699  -0.000000
   16  SI 1 ZZ   -0.747014  -0.419884   0.000000   0.000000  -0.000000
   17  SI 1 XY    0.000000  -0.000000  -0.125514  -0.000000  -0.000000
   18  SI 1 XZ    0.000000  -0.000000   0.000000   0.000000   0.173221
   19  SI 1 YZ    0.000000  -0.000000   0.000000   0.000000   0.443687
   20  O  2  S   -0.063506  -0.095035   0.000000   0.000000  -0.000000
   21  O  2  S   -0.442342  -1.474091   0.000000   0.000000  -0.000000
   22  O  2  X    0.000000  -0.000000   0.000000   0.000000  -0.045600
   23  O  2  Y    0.000000  -0.000000   0.000000   0.000000  -0.116798
   24  O  2  Z    0.860543  -0.438390   0.000000   0.000000  -0.000000
   25  O  2  S    1.858901   3.823263   0.000000   0.000000  -0.000000
   26  O  2  X    0.000000  -0.000000   0.000000   0.000000   0.123493
   27  O  2  Y    0.000000  -0.000000   0.000000   0.000000   0.316313
   28  O  2  Z   -0.171892   1.564660   0.000000   0.000000  -0.000000
   29  O  2 XX   -0.160389  -0.373064   0.000000  -0.868387  -0.000000
   30  O  2 YY   -0.160389  -0.373064  -0.000000   0.868387  -0.000000
   31  O  2 ZZ   -0.229949  -0.654913   0.000000   0.000000  -0.000000
   32  O  2 XY    0.000000  -0.000000   1.002727   0.000000  -0.000000
   33  O  2 XZ    0.000000  -0.000000   0.000000   0.000000   0.392394
   34  O  2 YZ    0.000000  -0.000000   0.000000   0.000000   1.005074

                     31         32         33         34
                    2.3631     2.5881     3.0362     3.9933
                     A          A          A          A   
    1  SI 1  S    0.000000   0.136644  -0.039135   0.001550
    2  SI 1  S    0.000000  -0.698888  -0.077337  -0.112154
    3  SI 1  X    0.051287   0.000000  -0.000000  -0.000000
    4  SI 1  Y   -0.020023   0.000000  -0.000000  -0.000000
    5  SI 1  Z    0.000000  -0.070595  -0.152134  -0.005099
    6  SI 1  S    0.000000   5.618807  -2.051212  -0.259383
    7  SI 1  X   -0.303563   0.000000  -0.000000  -0.000000
    8  SI 1  Y    0.118515   0.000000  -0.000000  -0.000000
    9  SI 1  Z    0.000000   0.748325   2.375140   0.535623
   10  SI 1  S    0.000000  -0.337439  -0.079014  -0.432935
   11  SI 1  X    0.031164   0.000000  -0.000000  -0.000000
   12  SI 1  Y   -0.012167   0.000000  -0.000000  -0.000000
   13  SI 1  Z    0.000000  -0.066320  -0.212686   0.312858
   14  SI 1 XX    0.000000  -2.428005   0.564873  -0.018732
   15  SI 1 YY    0.000000  -2.428005   0.564873  -0.018732
   16  SI 1 ZZ    0.000000  -3.053216  -1.140420  -0.254137
   17  SI 1 XY    0.000000   0.000000  -0.000000  -0.000000
   18  SI 1 XZ    0.443687   0.000000  -0.000000  -0.000000
   19  SI 1 YZ   -0.173221   0.000000  -0.000000  -0.000000
   20  O  2  S    0.000000  -0.007938  -0.051270  -0.477556
   21  O  2  S    0.000000  -0.158452  -0.956822   0.198523
   22  O  2  X   -0.116798   0.000000  -0.000000  -0.000000
   23  O  2  Y    0.045600   0.000000  -0.000000  -0.000000
   24  O  2  Z    0.000000   0.164429  -0.096333  -0.108782
   25  O  2  S    0.000000   0.807432   3.148544   3.984693
   26  O  2  X    0.316313   0.000000  -0.000000  -0.000000
   27  O  2  Y   -0.123493   0.000000  -0.000000  -0.000000
   28  O  2  Z    0.000000   0.607110   2.131930   0.678364
   29  O  2 XX    0.000000  -0.079049  -0.733553  -1.681155
   30  O  2 YY    0.000000  -0.079049  -0.733553  -1.681155
   31  O  2 ZZ    0.000000   0.252880   1.291852  -1.299136
   32  O  2 XY    0.000000   0.000000  -0.000000  -0.000000
   33  O  2 XZ    1.005074   0.000000  -0.000000  -0.000000
   34  O  2 YZ   -0.392394   0.000000  -0.000000  -0.000000

 LZ VALUE ANALYSIS FOR THE MOS
 ----------------------------------------
 MO     1 (    1) HAS LZ(WEIGHT)= 0.00(100.0%) 
 MO     2 (    2) HAS LZ(WEIGHT)= 0.00(100.0%) 
 MO     3 (    3) HAS LZ(WEIGHT)= 0.00(100.0%) 
 MO     4 (    4) HAS LZ(WEIGHT)=-1.00( 50.0%)  1.00( 50.0%) 
 MO     5 (    4) HAS LZ(WEIGHT)=-1.00( 50.0%)  1.00( 50.0%) 
 MO     6 (    5) HAS LZ(WEIGHT)= 0.00(100.0%) 
 MO     7 (    6) HAS LZ(WEIGHT)= 0.00(100.0%) 
 MO     8 (    7) HAS LZ(WEIGHT)= 0.00(100.0%) 
 MO     9 (    8) HAS LZ(WEIGHT)=-1.00( 50.0%)  1.00( 50.0%) 
 MO    10 (    8) HAS LZ(WEIGHT)=-1.00( 50.0%)  1.00( 50.0%) 
 MO    11 (    9) HAS LZ(WEIGHT)= 0.00(100.0%) 
 MO    12 (   10) HAS LZ(WEIGHT)=-1.00( 50.0%)  1.00( 50.0%) 
 MO    13 (   10) HAS LZ(WEIGHT)=-1.00( 50.0%)  1.00( 50.0%) 
 MO    14 (   11) HAS LZ(WEIGHT)= 0.00(100.0%) 
 MO    15 (   12) HAS LZ(WEIGHT)= 0.00(100.0%) 
 MO    16 (   13) HAS LZ(WEIGHT)=-1.00( 50.0%)  1.00( 50.0%) 
 MO    17 (   13) HAS LZ(WEIGHT)=-1.00( 50.0%)  1.00( 50.0%) 
 MO    18 (   14) HAS LZ(WEIGHT)= 0.00(100.0%) 
 MO    19 (   15) HAS LZ(WEIGHT)=-2.00( 50.0%)  2.00( 50.0%) 
 MO    20 (   15) HAS LZ(WEIGHT)=-2.00( 50.0%)  2.00( 50.0%) 
 MO    21 (   16) HAS LZ(WEIGHT)=-1.00( 50.0%)  1.00( 50.0%) 
 MO    22 (   16) HAS LZ(WEIGHT)=-1.00( 50.0%)  1.00( 50.0%) 
 MO    23 (   17) HAS LZ(WEIGHT)= 0.00(100.0%) 
 MO    24 (   18) HAS LZ(WEIGHT)=-1.00( 50.0%)  1.00( 50.0%) 
 MO    25 (   18) HAS LZ(WEIGHT)=-1.00( 50.0%)  1.00( 50.0%) 
 MO    26 (   19) HAS LZ(WEIGHT)= 0.00(100.0%) 
 MO    27 (   20) HAS LZ(WEIGHT)= 0.00(100.0%) 
 MO    28 (   21) HAS LZ(WEIGHT)=-2.00( 50.0%)  2.00( 50.0%) 
 MO    29 (   21) HAS LZ(WEIGHT)=-2.00( 50.0%)  2.00( 50.0%) 
 MO    30 (   22) HAS LZ(WEIGHT)=-1.00( 50.0%)  1.00( 50.0%) 
 MO    31 (   22) HAS LZ(WEIGHT)=-1.00( 50.0%)  1.00( 50.0%) 
 MO    32 (   23) HAS LZ(WEIGHT)= 0.00(100.0%) 
 MO    33 (   24) HAS LZ(WEIGHT)= 0.00(100.0%) 
 MO    34 (   25) HAS LZ(WEIGHT)= 0.00(100.0%) 

  ----- BETA SET ----- 

          ------------
          EIGENVECTORS
          ------------

                      1          2          3          4          5
                  -68.8258   -20.5439    -6.1791    -4.2804    -4.2804
                     A          A          A          A          A   
    1  SI 1  S    0.996876   0.000013  -0.268332  -0.000000  -0.000000
    2  SI 1  S    0.012398  -0.000068   1.031048  -0.000000  -0.000000
    3  SI 1  X   -0.000000  -0.000000   0.000000   0.105697   0.989282
    4  SI 1  Y   -0.000000  -0.000000   0.000000   0.989282  -0.105697
    5  SI 1  Z   -0.000036   0.000026   0.001140  -0.000000  -0.000000
    6  SI 1  S   -0.016757   0.000498   0.002774  -0.000000  -0.000000
    7  SI 1  X   -0.000000  -0.000000   0.000000   0.002063   0.019306
    8  SI 1  Y   -0.000000  -0.000000   0.000000   0.019306  -0.002063
    9  SI 1  Z    0.000174  -0.000362   0.000700  -0.000000  -0.000000
   10  SI 1  S    0.001959  -0.000309  -0.001841  -0.000000  -0.000000
   11  SI 1  X   -0.000000  -0.000000   0.000000  -0.000527  -0.004928
   12  SI 1  Y   -0.000000  -0.000000   0.000000  -0.004928   0.000527
   13  SI 1  Z    0.000025   0.000325  -0.000021  -0.000000  -0.000000
   14  SI 1 XX    0.005894  -0.000116   0.002801  -0.000000  -0.000000
   15  SI 1 YY    0.005894  -0.000116   0.002801  -0.000000  -0.000000
   16  SI 1 ZZ    0.005773  -0.000001   0.001856  -0.000000  -0.000000
   17  SI 1 XY   -0.000000  -0.000000   0.000000  -0.000000  -0.000000
   18  SI 1 XZ   -0.000000  -0.000000   0.000000   0.000057   0.000535
   19  SI 1 YZ   -0.000000  -0.000000   0.000000   0.000535  -0.000057
   20  O  2  S   -0.000003   0.994747  -0.000541  -0.000000  -0.000000
   21  O  2  S   -0.000122   0.020690   0.000603  -0.000000  -0.000000
   22  O  2  X   -0.000000  -0.000000   0.000000   0.000062   0.000584
   23  O  2  Y   -0.000000  -0.000000   0.000000   0.000584  -0.000062
   24  O  2  Z   -0.000131   0.000937   0.001371  -0.000000  -0.000000
   25  O  2  S    0.000277   0.003992   0.001199  -0.000000  -0.000000
   26  O  2  X   -0.000000  -0.000000   0.000000  -0.000026  -0.000246
   27  O  2  Y   -0.000000  -0.000000   0.000000  -0.000246   0.000026
   28  O  2  Z    0.000192  -0.000399   0.000847  -0.000000  -0.000000
   29  O  2 XX    0.000001  -0.003990  -0.000322  -0.000000  -0.000000
   30  O  2 YY    0.000001  -0.003990  -0.000322  -0.000000  -0.000000
   31  O  2 ZZ    0.000059  -0.003901   0.000968  -0.000000  -0.000000
   32  O  2 XY   -0.000000  -0.000000   0.000000  -0.000000  -0.000000
   33  O  2 XZ   -0.000000  -0.000000   0.000000   0.000044   0.000410
   34  O  2 YZ   -0.000000  -0.000000   0.000000   0.000410  -0.000044

                      6          7          8          9         10
                   -4.2792    -1.2487    -0.6048    -0.4605    -0.4605
                     A          A          A          A          A   
    1  SI 1  S    0.000176   0.019859   0.049331   0.000000   0.000000
    2  SI 1  S   -0.000270  -0.098945  -0.236094   0.000000   0.000000
    3  SI 1  X    0.000000   0.000000  -0.000000   0.010433  -0.097502
    4  SI 1  Y    0.000000   0.000000  -0.000000  -0.097502  -0.010433
    5  SI 1  Z    0.995161   0.079799   0.036726   0.000000   0.000000
    6  SI 1  S   -0.000846   0.163959   0.561548   0.000000   0.000000
    7  SI 1  X    0.000000   0.000000  -0.000000  -0.026380   0.246537
    8  SI 1  Y    0.000000   0.000000  -0.000000   0.246537   0.026380
    9  SI 1  Z    0.015631  -0.127242  -0.068473   0.000000   0.000000
   10  SI 1  S   -0.000368   0.005218   0.118162   0.000000   0.000000
   11  SI 1  X    0.000000   0.000000  -0.000000  -0.010598   0.099044
   12  SI 1  Y    0.000000   0.000000  -0.000000   0.099044   0.010598
   13  SI 1  Z   -0.003325   0.015743   0.067036   0.000000   0.000000
   14  SI 1 XX    0.000205  -0.028308  -0.022895   0.000000   0.000000
   15  SI 1 YY    0.000205  -0.028308  -0.022895   0.000000   0.000000
   16  SI 1 ZZ    0.001715   0.052532   0.039694   0.000000   0.000000
   17  SI 1 XY    0.000000   0.000000  -0.000000   0.000000   0.000000
   18  SI 1 XZ    0.000000   0.000000  -0.000000   0.008569  -0.080083
   19  SI 1 YZ    0.000000   0.000000  -0.000000  -0.080083  -0.008569
   20  O  2  S    0.001812  -0.214128   0.073292   0.000000   0.000000
   21  O  2  S   -0.002812   0.486554  -0.163318   0.000000   0.000000
   22  O  2  X    0.000000   0.000000  -0.000000  -0.058370   0.545512
   23  O  2  Y    0.000000   0.000000  -0.000000   0.545512   0.058370
   24  O  2  Z   -0.004725   0.090329   0.447012   0.000000   0.000000
   25  O  2  S   -0.001422   0.429070  -0.321521   0.000000   0.000000
   26  O  2  X    0.000000   0.000000  -0.000000  -0.045638   0.426523
   27  O  2  Y    0.000000   0.000000  -0.000000   0.426523   0.045638
   28  O  2  Z   -0.001919   0.029586   0.248429   0.000000   0.000000
   29  O  2 XX    0.000897   0.002314  -0.001606   0.000000   0.000000
   30  O  2 YY    0.000897   0.002314  -0.001606   0.000000   0.000000
   31  O  2 ZZ   -0.003115   0.027831   0.029792   0.000000   0.000000
   32  O  2 XY    0.000000   0.000000  -0.000000   0.000000   0.000000
   33  O  2 XZ    0.000000   0.000000  -0.000000  -0.003672   0.034317
   34  O  2 YZ    0.000000   0.000000  -0.000000   0.034317   0.003672

                     11         12         13         14         15
                   -0.4331     0.0470     0.0470     0.1518     0.2660
                     A          A          A          A          A   
    1  SI 1  S    0.033712  -0.000000   0.000000  -0.010229  -0.051769
    2  SI 1  S   -0.166360  -0.000000   0.000000   0.069132   0.066705
    3  SI 1  X    0.000000   0.006817  -0.151724  -0.000000  -0.000000
    4  SI 1  Y    0.000000  -0.151724  -0.006817  -0.000000  -0.000000
    5  SI 1  Z   -0.170112  -0.000000   0.000000  -0.045320   0.110163
    6  SI 1  S    0.376163  -0.000000   0.000000  -0.044044  -1.399701
    7  SI 1  X    0.000000  -0.017957   0.399661  -0.000000  -0.000000
    8  SI 1  Y    0.000000   0.399661   0.017957  -0.000000  -0.000000
    9  SI 1  Z    0.468343  -0.000000   0.000000   0.111917  -0.559630
   10  SI 1  S    0.368468  -0.000000   0.000000  -0.615672   1.755382
   11  SI 1  X    0.000000  -0.031815   0.708106  -0.000000  -0.000000
   12  SI 1  Y    0.000000   0.708106   0.031815  -0.000000  -0.000000
   13  SI 1  Z    0.073696  -0.000000   0.000000   1.160678   0.358372
   14  SI 1 XX    0.039192  -0.000000   0.000000  -0.068975  -0.070345
   15  SI 1 YY    0.039192  -0.000000   0.000000  -0.068975  -0.070345
   16  SI 1 ZZ   -0.065825  -0.000000   0.000000   0.108966  -0.008201
   17  SI 1 XY    0.000000  -0.000000   0.000000  -0.000000  -0.000000
   18  SI 1 XZ    0.000000  -0.003643   0.081086  -0.000000  -0.000000
   19  SI 1 YZ    0.000000   0.081086   0.003643  -0.000000  -0.000000
   20  O  2  S   -0.004729  -0.000000   0.000000  -0.079811   0.018163
   21  O  2  S    0.001621  -0.000000   0.000000   0.031798   0.027300
   22  O  2  X    0.000000   0.011425  -0.254285  -0.000000  -0.000000
   23  O  2  Y    0.000000  -0.254285  -0.011425  -0.000000  -0.000000
   24  O  2  Z   -0.365631  -0.000000   0.000000   0.111395   0.070815
   25  O  2  S    0.094685  -0.000000   0.000000   0.961425  -0.366892
   26  O  2  X    0.000000   0.015215  -0.338636  -0.000000  -0.000000
   27  O  2  Y    0.000000  -0.338636  -0.015215  -0.000000  -0.000000
   28  O  2  Z   -0.221504  -0.000000   0.000000   0.136981  -0.046617
   29  O  2 XX    0.001493  -0.000000   0.000000  -0.063949   0.030004
   30  O  2 YY    0.001493  -0.000000   0.000000  -0.063949   0.030004
   31  O  2 ZZ   -0.021096  -0.000000   0.000000  -0.053391   0.008579
   32  O  2 XY    0.000000  -0.000000   0.000000  -0.000000  -0.000000
   33  O  2 XZ    0.000000   0.000221  -0.004922  -0.000000  -0.000000
   34  O  2 YZ    0.000000  -0.004922  -0.000221  -0.000000  -0.000000

                     16         17         18         19         20
                    0.3528     0.3528     0.5266     0.7040     0.7040
                     A          A          A          A          A   
    1  SI 1  S   -0.000000  -0.000000  -0.027412   0.000000   0.000000
    2  SI 1  S   -0.000000  -0.000000   0.044777   0.000000   0.000000
    3  SI 1  X   -0.288313   0.036331  -0.000000   0.000000   0.000000
    4  SI 1  Y   -0.036331  -0.288313  -0.000000   0.000000   0.000000
    5  SI 1  Z   -0.000000  -0.000000  -0.241144   0.000000   0.000000
    6  SI 1  S   -0.000000  -0.000000  -0.717331   0.000000   0.000000
    7  SI 1  X    1.299672  -0.163774  -0.000000   0.000000   0.000000
    8  SI 1  Y    0.163774   1.299672  -0.000000   0.000000   0.000000
    9  SI 1  Z   -0.000000  -0.000000   1.197350   0.000000   0.000000
   10  SI 1  S   -0.000000  -0.000000   0.558821   0.000000   0.000000
   11  SI 1  X   -1.151327   0.145080  -0.000000   0.000000   0.000000
   12  SI 1  Y   -0.145080  -1.151327  -0.000000   0.000000   0.000000
   13  SI 1  Z   -0.000000  -0.000000  -0.931470   0.000000   0.000000
   14  SI 1 XX   -0.000000  -0.000000  -0.254738   0.000222   0.862294
   15  SI 1 YY   -0.000000  -0.000000  -0.254738  -0.000222  -0.862294
   16  SI 1 ZZ   -0.000000  -0.000000   0.443368   0.000000   0.000000
   17  SI 1 XY   -0.000000  -0.000000  -0.000000   0.995691  -0.000256
   18  SI 1 XZ    0.044291  -0.005581  -0.000000   0.000000   0.000000
   19  SI 1 YZ    0.005581   0.044291  -0.000000   0.000000   0.000000
   20  O  2  S   -0.000000  -0.000000  -0.012084   0.000000   0.000000
   21  O  2  S   -0.000000  -0.000000   0.098469   0.000000   0.000000
   22  O  2  X   -0.068142   0.008587  -0.000000   0.000000   0.000000
   23  O  2  Y   -0.008587  -0.068142  -0.000000   0.000000   0.000000
   24  O  2  Z   -0.000000  -0.000000   0.287291   0.000000   0.000000
   25  O  2  S   -0.000000  -0.000000  -0.166703   0.000000   0.000000
   26  O  2  X   -0.032306   0.004071  -0.000000   0.000000   0.000000
   27  O  2  Y   -0.004071  -0.032306  -0.000000   0.000000   0.000000
   28  O  2  Z   -0.000000  -0.000000   0.306242   0.000000   0.000000
   29  O  2 XX   -0.000000  -0.000000   0.029610   0.000009   0.035637
   30  O  2 YY   -0.000000  -0.000000   0.029610  -0.000009  -0.035637
   31  O  2 ZZ   -0.000000  -0.000000   0.001325   0.000000   0.000000
   32  O  2 XY   -0.000000  -0.000000  -0.000000   0.041150  -0.000011
   33  O  2 XZ    0.019123  -0.002410  -0.000000   0.000000   0.000000
   34  O  2 YZ    0.002410   0.019123  -0.000000   0.000000   0.000000

                     21         22         23         24         25
                    0.8029     0.8029     1.0641     1.3030     1.3030
                     A          A          A          A          A   
    1  SI 1  S    0.000000   0.000000  -0.024856  -0.000000  -0.000000
    2  SI 1  S    0.000000   0.000000  -0.037762  -0.000000  -0.000000
    3  SI 1  X    0.000581   0.021084  -0.000000   0.006445   0.002036
    4  SI 1  Y    0.021084  -0.000581  -0.000000  -0.002036   0.006445
    5  SI 1  Z    0.000000   0.000000  -0.171132  -0.000000  -0.000000
    6  SI 1  S    0.000000   0.000000  -0.952673  -0.000000  -0.000000
    7  SI 1  X   -0.002363  -0.085792  -0.000000  -0.108976  -0.034425
    8  SI 1  Y   -0.085792   0.002363  -0.000000   0.034425  -0.108976
    9  SI 1  Z    0.000000   0.000000   1.432795  -0.000000  -0.000000
   10  SI 1  S    0.000000   0.000000   0.162483  -0.000000  -0.000000
   11  SI 1  X   -0.002088  -0.075797  -0.000000  -0.217680  -0.068765
   12  SI 1  Y   -0.075797   0.002088  -0.000000   0.068765  -0.217680
   13  SI 1  Z    0.000000   0.000000  -0.396106  -0.000000  -0.000000
   14  SI 1 XX    0.000000   0.000000   0.375046  -0.000000  -0.000000
   15  SI 1 YY    0.000000   0.000000   0.375046  -0.000000  -0.000000
   16  SI 1 ZZ    0.000000   0.000000  -1.050033  -0.000000  -0.000000
   17  SI 1 XY    0.000000   0.000000  -0.000000  -0.000000  -0.000000
   18  SI 1 XZ    0.027974   1.015595  -0.000000   0.267883   0.084624
   19  SI 1 YZ    1.015595  -0.027974  -0.000000  -0.084624   0.267883
   20  O  2  S    0.000000   0.000000  -0.047068  -0.000000  -0.000000
   21  O  2  S    0.000000   0.000000   0.617521  -0.000000  -0.000000
   22  O  2  X    0.007788   0.282745  -0.000000  -0.906442  -0.286344
   23  O  2  Y    0.282745  -0.007788  -0.000000   0.286344  -0.906442
   24  O  2  Z    0.000000   0.000000  -0.204337  -0.000000  -0.000000
   25  O  2  S    0.000000   0.000000   0.104528  -0.000000  -0.000000
   26  O  2  X    0.005988   0.217385  -0.000000   1.149041   0.362980
   27  O  2  Y    0.217385  -0.005988  -0.000000  -0.362980   1.149041
   28  O  2  Z    0.000000   0.000000   1.578036  -0.000000  -0.000000
   29  O  2 XX    0.000000   0.000000   0.194279  -0.000000  -0.000000
   30  O  2 YY    0.000000   0.000000   0.194279  -0.000000  -0.000000
   31  O  2 ZZ    0.000000   0.000000   0.229655  -0.000000  -0.000000
   32  O  2 XY    0.000000   0.000000  -0.000000  -0.000000  -0.000000
   33  O  2 XZ   -0.001318  -0.047852  -0.000000  -0.079540  -0.025127
   34  O  2 YZ   -0.047852   0.001318  -0.000000   0.025127  -0.079540

                     26         27         28         29         30
                    1.4046     1.4527     2.1446     2.1446     2.3631
                     A          A          A          A          A   
    1  SI 1  S   -0.023601  -0.010088   0.000000   0.000000  -0.000000
    2  SI 1  S    0.114691  -0.117932   0.000000   0.000000  -0.000000
    3  SI 1  X    0.000000  -0.000000   0.000000   0.000000   0.020023
    4  SI 1  Y    0.000000  -0.000000   0.000000   0.000000   0.051287
    5  SI 1  Z   -0.124169  -0.046789   0.000000   0.000000  -0.000000
    6  SI 1  S   -0.562161  -0.802322   0.000000   0.000000  -0.000000
    7  SI 1  X    0.000000  -0.000000   0.000000   0.000000  -0.118515
    8  SI 1  Y    0.000000  -0.000000   0.000000   0.000000  -0.303563
    9  SI 1  Z    0.658848   1.158855   0.000000   0.000000  -0.000000
   10  SI 1  S   -0.412733  -0.566917   0.000000   0.000000  -0.000000
   11  SI 1  X    0.000000  -0.000000   0.000000   0.000000   0.012167
   12  SI 1  Y    0.000000  -0.000000   0.000000   0.000000   0.031164
   13  SI 1  Z    0.267853   0.334962   0.000000   0.000000  -0.000000
   14  SI 1 XX    0.575474   0.080719  -0.000000   0.108699  -0.000000
   15  SI 1 YY    0.575474   0.080719   0.000000  -0.108699  -0.000000
   16  SI 1 ZZ   -0.747014  -0.419884   0.000000   0.000000  -0.000000
   17  SI 1 XY    0.000000  -0.000000  -0.125514  -0.000000  -0.000000
   18  SI 1 XZ    0.000000  -0.000000   0.000000   0.000000   0.173221
   19  SI 1 YZ    0.000000  -0.000000   0.000000   0.000000   0.443687
   20  O  2  S   -0.063506  -0.095035   0.000000   0.000000  -0.000000
   21  O  2  S   -0.442342  -1.474091   0.000000   0.000000  -0.000000
   22  O  2  X    0.000000  -0.000000   0.000000   0.000000  -0.045600
   23  O  2  Y    0.000000  -0.000000   0.000000   0.000000  -0.116798
   24  O  2  Z    0.860543  -0.438390   0.000000   0.000000  -0.000000
   25  O  2  S    1.858901   3.823263   0.000000   0.000000  -0.000000
   26  O  2  X    0.000000  -0.000000   0.000000   0.000000   0.123493
   27  O  2  Y    0.000000  -0.000000   0.000000   0.000000   0.316313
   28  O  2  Z   -0.171892   1.564660   0.000000   0.000000  -0.000000
   29  O  2 XX   -0.160389  -0.373064   0.000000  -0.868387  -0.000000
   30  O  2 YY   -0.160389  -0.373064  -0.000000   0.868387  -0.000000
   31  O  2 ZZ   -0.229949  -0.654913   0.000000   0.000000  -0.000000
   32  O  2 XY    0.000000  -0.000000   1.002727   0.000000  -0.000000
   33  O  2 XZ    0.000000  -0.000000   0.000000   0.000000   0.392394
   34  O  2 YZ    0.000000  -0.000000   0.000000   0.000000   1.005074

                     31         32         33         34
                    2.3631     2.5881     3.0362     3.9933
                     A          A          A          A   
    1  SI 1  S    0.000000   0.136644  -0.039135   0.001550
    2  SI 1  S    0.000000  -0.698888  -0.077337  -0.112154
    3  SI 1  X    0.051287   0.000000  -0.000000  -0.000000
    4  SI 1  Y   -0.020023   0.000000  -0.000000  -0.000000
    5  SI 1  Z    0.000000  -0.070595  -0.152134  -0.005099
    6  SI 1  S    0.000000   5.618807  -2.051212  -0.259383
    7  SI 1  X   -0.303563   0.000000  -0.000000  -0.000000
    8  SI 1  Y    0.118515   0.000000  -0.000000  -0.000000
    9  SI 1  Z    0.000000   0.748325   2.375140   0.535623
   10  SI 1  S    0.000000  -0.337439  -0.079014  -0.432935
   11  SI 1  X    0.031164   0.000000  -0.000000  -0.000000
   12  SI 1  Y   -0.012167   0.000000  -0.000000  -0.000000
   13  SI 1  Z    0.000000  -0.066320  -0.212686   0.312858
   14  SI 1 XX    0.000000  -2.428005   0.564873  -0.018732
   15  SI 1 YY    0.000000  -2.428005   0.564873  -0.018732
   16  SI 1 ZZ    0.000000  -3.053216  -1.140420  -0.254137
   17  SI 1 XY    0.000000   0.000000  -0.000000  -0.000000
   18  SI 1 XZ    0.443687   0.000000  -0.000000  -0.000000
   19  SI 1 YZ   -0.173221   0.000000  -0.000000  -0.000000
   20  O  2  S    0.000000  -0.007938  -0.051270  -0.477556
   21  O  2  S    0.000000  -0.158452  -0.956822   0.198523
   22  O  2  X   -0.116798   0.000000  -0.000000  -0.000000
   23  O  2  Y    0.045600   0.000000  -0.000000  -0.000000
   24  O  2  Z    0.000000   0.164429  -0.096333  -0.108782
   25  O  2  S    0.000000   0.807432   3.148544   3.984693
   26  O  2  X    0.316313   0.000000  -0.000000  -0.000000
   27  O  2  Y   -0.123493   0.000000  -0.000000  -0.000000
   28  O  2  Z    0.000000   0.607110   2.131930   0.678364
   29  O  2 XX    0.000000  -0.079049  -0.733553  -1.681155
   30  O  2 YY    0.000000  -0.079049  -0.733553  -1.681155
   31  O  2 ZZ    0.000000   0.252880   1.291852  -1.299136
   32  O  2 XY    0.000000   0.000000  -0.000000  -0.000000
   33  O  2 XZ    1.005074   0.000000  -0.000000  -0.000000
   34  O  2 YZ   -0.392394   0.000000  -0.000000  -0.000000
 ...... END OF UHF CALCULATION ......
 STEP CPU TIME =     0.01 TOTAL CPU TIME =          0.0 (      0.0 MIN)
 TOTAL WALL CLOCK TIME=          0.0 SECONDS, CPU UTILIZATION IS    97.50%

     ----------------------------------------------------------------
     PROPERTY VALUES FOR THE UHF   SELF-CONSISTENT FIELD WAVEFUNCTION
     ----------------------------------------------------------------

          -----------------
          ENERGY COMPONENTS
          -----------------

         WAVEFUNCTION NORMALIZATION =       1.0000000000

                ONE ELECTRON ENERGY =    -580.9740466524
                TWO ELECTRON ENERGY =     178.8904839487
           NUCLEAR REPULSION ENERGY =      38.3102769642
                                      ------------------
                       TOTAL ENERGY =    -363.7732857395

 ELECTRON-ELECTRON POTENTIAL ENERGY =     178.8904839487
  NUCLEUS-ELECTRON POTENTIAL ENERGY =    -944.1963210665
   NUCLEUS-NUCLEUS POTENTIAL ENERGY =      38.3102769642
                                      ------------------
             TOTAL POTENTIAL ENERGY =    -726.9955601535
               TOTAL KINETIC ENERGY =     363.2222744140
                 VIRIAL RATIO (V/T) =       2.0015170086

  ...... PI ENERGY ANALYSIS ......

 ENERGY ANALYSIS:
            FOCK ENERGY=   -223.1930781044
          BARE H ENERGY=   -580.9740466524
     ELECTRONIC ENERGY =   -402.0835623784
         KINETIC ENERGY=    363.2222744140
          N-N REPULSION=     38.3102769642
           TOTAL ENERGY=   -363.7732854142
        SIGMA PART(1+2)=   -322.0509280482
               (K,V1,2)=    306.8775547633   -746.7500817347    117.8215989232
           PI PART(1+2)=    -80.0326343302
               (K,V1,2)=     56.3447196508   -197.4462393318     61.0688853508
  SIGMA SKELETON, ERROR=   -283.7406510840     -0.0000000000
             MIXED PART= 0.00000E+00 0.00000E+00 0.00000E+00 0.00000E+00
 ...... END OF PI ENERGY ANALYSIS ......

          ---------------------------------------
          MULLIKEN AND LOWDIN POPULATION ANALYSES
          ---------------------------------------

     ATOMIC MULLIKEN POPULATION IN EACH MOLECULAR ORBITAL
        ALPHA ORBITALS

                      1          2          3          4          5

                  1.000000   1.000000   1.000000   1.000000   1.000000

    1             0.999993   0.000004   0.999662   0.999999   0.999999
    2             0.000007   0.999996   0.000338   0.000001   0.000001

                      6          7          8          9         10

                  1.000000   1.000000   1.000000   1.000000   1.000000

    1             0.999252   0.144918   0.422019   0.191618   0.191618
    2             0.000748   0.855082   0.577981   0.808382   0.808382

                     11

                  1.000000

    1             0.735484
    2             0.264516

     ATOMIC MULLIKEN POPULATION IN EACH MOLECULAR ORBITAL
         BETA ORBITALS

                      1          2          3          4          5

                  1.000000   1.000000   1.000000   1.000000   1.000000

    1             0.999993   0.000004   0.999662   0.999999   0.999999
    2             0.000007   0.999996   0.000338   0.000001   0.000001

                      6          7          8          9         10

                  1.000000   1.000000   1.000000   1.000000   1.000000

    1             0.999252   0.144918   0.422019   0.191618   0.191618
    2             0.000748   0.855082   0.577981   0.808382   0.808382

                     11

                  1.000000

    1             0.735484
    2             0.264516

     ATOMIC SPIN POPULATION (ALPHA MINUS BETA)
       ATOM         MULL.POP.                    LOW.POP.
    1 SI            0.000000                     0.000000
    2 O             0.000000                     0.000000


          ********* ALL ELECTRONS ********

               ----- POPULATIONS IN EACH AO -----
                             MULLIKEN      LOWDIN
              1  SI 1  S      1.99918     1.99900
              2  SI 1  S      2.00158     1.97818
              3  SI 1  X      1.99098     1.95772
              4  SI 1  Y      1.99098     1.95772
              5  SI 1  Z      1.99586     1.97064
              6  SI 1  S      1.23123     0.57745
              7  SI 1  X      0.24877     0.25750
              8  SI 1  Y      0.24877     0.25750
              9  SI 1  Z      0.68064     0.60440
             10  SI 1  S      0.55704     0.53858
             11  SI 1  X      0.09103     0.13321
             12  SI 1  Y      0.09103     0.13321
             13  SI 1  Z      0.06525     0.17762
             14  SI 1 XX      0.00326     0.23013
             15  SI 1 YY      0.00326     0.23013
             16  SI 1 ZZ      0.06536     0.30268
             17  SI 1 XY      0.00000     0.00000
             18  SI 1 XZ      0.05245     0.06906
             19  SI 1 YZ      0.05245     0.06906
             20  O  2  S      1.99564     1.97838
             21  O  2  S      0.92840     0.73478
             22  O  2  X      0.88128     0.84648
             23  O  2  Y      0.88128     0.84648
             24  O  2  Z      0.99965     0.95218
             25  O  2  S      0.90504     0.49560
             26  O  2  X      0.72853     0.72945
             27  O  2  Y      0.72853     0.72945
             28  O  2  Z      0.52844     0.67579
             29  O  2 XX      0.00330     0.17925
             30  O  2 YY      0.00330     0.17925
             31  O  2 ZZ      0.03357     0.19596
             32  O  2 XY      0.00000     0.00000
             33  O  2 XZ      0.00696     0.00659
             34  O  2 YZ      0.00696     0.00659

          ----- MULLIKEN ATOMIC OVERLAP POPULATIONS -----
          (OFF-DIAGONAL ELEMENTS NEED TO BE MULTIPLIED BY 2)

             1           2

    1   12.7980315
    2    0.5710988   8.0597709

          TOTAL MULLIKEN AND LOWDIN ATOMIC POPULATIONS
       ATOM         MULL.POP.    CHARGE          LOW.POP.     CHARGE
    1 SI           13.369130    0.630870        13.443781    0.556219
    2 O             8.630870   -0.630870         8.556219   -0.556219

          -------------------------------
          BOND ORDER AND VALENCE ANALYSIS     BOND ORDER THRESHOLD=0.050
          -------------------------------

                   BOND                       BOND                       BOND
  ATOM PAIR DIST  ORDER      ATOM PAIR DIST  ORDER      ATOM PAIR DIST  ORDER
    1   2  1.547  2.071

                       TOTAL       BONDED        FREE
      ATOM            VALENCE     VALENCE     VALENCE
    1 SI                2.071       2.071      -0.000
    2 O                 2.071       2.071      -0.000

          -----------------------------------------
          ATOMIC SPIN DENSITY AT THE NUCLEUS (A.U.)
          -----------------------------------------
                            SPIN DENS    ALPHA DENS     BETA DENS
    1  SI          14.0     0.0000000     827.24551     827.24551
    2  O            8.0     0.0000000     145.42948     145.42948

          ---------------------
          ELECTROSTATIC MOMENTS
          ---------------------

 POINT   1           X           Y           Z (BOHR)    CHARGE
                 0.000000    0.000000    0.008476       -0.00 (A.U.)
         DX          DY          DZ         /D/  (DEBYE)
     0.000000    0.000000    3.533783    3.533783
 ...... END OF PROPERTY EVALUATION ......
 STEP CPU TIME =     0.00 TOTAL CPU TIME =          0.0 (      0.0 MIN)
 TOTAL WALL CLOCK TIME=          0.0 SECONDS, CPU UTILIZATION IS    97.66%

 BEGINNING ONE ELECTRON GRADIENT...
 ..... END OF 1-ELECTRON GRADIENT ......
 STEP CPU TIME =     0.00 TOTAL CPU TIME =          0.0 (      0.0 MIN)
 TOTAL WALL CLOCK TIME=          0.0 SECONDS, CPU UTILIZATION IS    97.72%

          ----------------------
          GRADIENT OF THE ENERGY
          ----------------------

 THE MINIMUM MEMORY REQUIRED FOR THIS RUN IS      75631 WORDS.
 USING     990181 WORDS FOR 2E- DERIVATIVE INTEGRAL CONTRIBUTIONS.
 THE COARSE/FINE SCHWARZ SCREENINGS SKIPPED            0/           0 BLOCKS.
 THE NUMBER OF GRADIENT INTEGRAL BLOCKS COMPUTED WAS       860
 ...... END OF 2-ELECTRON GRADIENT ......
 STEP CPU TIME =     0.02 TOTAL CPU TIME =          0.0 (      0.0 MIN)
 TOTAL WALL CLOCK TIME=          0.0 SECONDS, CPU UTILIZATION IS    98.89%

          NSERCH=  0     ENERGY=    -363.7732857

                                 -----------------------
                                 GRADIENT (HARTREE/BOHR)
                                 -----------------------
        ATOM     ZNUC       DE/DX         DE/DY         DE/DZ
 --------------------------------------------------------------
    1  SI          14.0     0.0000000     0.0000000     0.0685264
    2  O            8.0     0.0000000     0.0000000    -0.0685264

          MAXIMUM GRADIENT = 0.0685264    RMS GRADIENT = 0.0395637

 NSERCH:   0  E=     -363.7732857395  GRAD. MAX=  0.0685264  R.M.S.=  0.0395637

          FORCE CONSTANT MATRIX NOT UPDATED --- TAKING FIRST STEP
          MIN SEARCH, CORRECT HESSIAN, TRYING PURE NR STEP
               NR STEP HAS LENGTH         =   0.077631
          RADIUS OF STEP TAKEN=   0.07763  CURRENT TRUST RADIUS=   0.30000

 BEGINNING GEOMETRY SEARCH POINT NSERCH=   1 ...

 COORDINATES OF ALL ATOMS ARE (ANGS)
   ATOM   CHARGE       X              Y              Z
 ------------------------------------------------------------
 SI         14.0   0.0000000000   0.0000000000   0.5381815114
 O           8.0   0.0000000000   0.0000000000  -0.9507705114

          INTERNUCLEAR DISTANCES (ANGS.)
          ------------------------------

                1 SI         2 O     

   1 SI      0.0000000    1.4889520 *
   2 O       1.4889520 *  0.0000000  

  * ... LESS THAN  3.000

 ...... END OF ONE-ELECTRON INTEGRALS ......
 STEP CPU TIME =     0.00 TOTAL CPU TIME =          0.0 (      0.0 MIN)
 TOTAL WALL CLOCK TIME=          0.0 SECONDS, CPU UTILIZATION IS    98.89%
 TOTAL NUMBER OF NONZERO TWO-ELECTRON INTEGRALS =               46351
          4 INTEGRAL RECORDS WERE STORED ON DISK FILE  8.
  ...... END OF TWO-ELECTRON INTEGRALS .....
 STEP CPU TIME =     0.00 TOTAL CPU TIME =          0.0 (      0.0 MIN)
 TOTAL WALL CLOCK TIME=          0.0 SECONDS, CPU UTILIZATION IS    98.87%

          ---------------------------
                  UHF SCF CALCULATION
          ---------------------------
     DENSITY MATRIX CONV=  2.00E-04

 ITER EX      TOTAL ENERGY        E CHANGE  DENSITY CHANGE    ORB. GRAD 
          ---------------START SECOND ORDER SCF---------------
   1  0     -363.7759972837  -363.7759972837   0.020020835   0.012311390
   2  1     -363.7768064039    -0.0008091201   0.012015170   0.006007614
   3  2     -363.7770827631    -0.0002763592   0.005494683   0.001546314
   4  3     -363.7771046019    -0.0000218388   0.000527046   0.000213577
   5  4     -363.7771054014    -0.0000007996   0.000307340   0.000058029
   6  5     -363.7771054928    -0.0000000914   0.000087585   0.000015935
   7  6     -363.7771054999    -0.0000000071   0.000018007   0.000006661

          -----------------
          DENSITY CONVERGED
          -----------------
     TIME TO FORM FOCK OPERATORS=       0.0 SECONDS (       0.0 SEC/ITER)
     TIME TO SOLVE SCF EQUATIONS=       0.0 SECONDS (       0.0 SEC/ITER)

 FINAL UHF ENERGY IS     -363.7771054999 AFTER   7 ITERATIONS

          --------------------
          SPIN SZ   =    0.000
          S-SQUARED =   -0.000
          --------------------

 LZ VALUE ANALYSIS FOR THE MOS
 ----------------------------------------
 MO     1 (    1) HAS LZ(WEIGHT)= 0.00(100.0%) 
 MO     2 (    2) HAS LZ(WEIGHT)= 0.00(100.0%) 
 MO     3 (    3) HAS LZ(WEIGHT)= 0.00(100.0%) 
 MO     4 (    4) HAS LZ(WEIGHT)= 0.00(100.0%) 
 MO     5 (    5) HAS LZ(WEIGHT)=-1.00( 50.0%)  1.00( 50.0%) 
 MO     6 (    5) HAS LZ(WEIGHT)=-1.00( 50.0%)  1.00( 50.0%) 
 MO     7 (    6) HAS LZ(WEIGHT)= 0.00(100.0%) 
 MO     8 (    7) HAS LZ(WEIGHT)= 0.00(100.0%) 
 MO     9 (    8) HAS LZ(WEIGHT)=-1.00( 50.0%)  1.00( 50.0%) 
 MO    10 (    8) HAS LZ(WEIGHT)=-1.00( 50.0%)  1.00( 50.0%) 
 MO    11 (    9) HAS LZ(WEIGHT)= 0.00(100.0%) 
 MO    12 (   10) HAS LZ(WEIGHT)=-1.00( 50.0%)  1.00( 50.0%) 
 MO    13 (   10) HAS LZ(WEIGHT)=-1.00( 50.0%)  1.00( 50.0%) 
 MO    14 (   11) HAS LZ(WEIGHT)= 0.00(100.0%) 
 MO    15 (   12) HAS LZ(WEIGHT)= 0.00(100.0%) 
 MO    16 (   13) HAS LZ(WEIGHT)=-1.00( 50.0%)  1.00( 50.0%) 
 MO    17 (   13) HAS LZ(WEIGHT)=-1.00( 50.0%)  1.00( 50.0%) 
 MO    18 (   14) HAS LZ(WEIGHT)= 0.00(100.0%) 
 MO    19 (   15) HAS LZ(WEIGHT)=-2.00( 50.0%)  2.00( 50.0%) 
 MO    20 (   15) HAS LZ(WEIGHT)=-2.00( 50.0%)  2.00( 50.0%) 
 MO    21 (   16) HAS LZ(WEIGHT)=-1.00( 50.0%)  1.00( 50.0%) 
 MO    22 (   16) HAS LZ(WEIGHT)=-1.00( 50.0%)  1.00( 50.0%) 
 MO    23 (   17) HAS LZ(WEIGHT)= 0.00(100.0%) 
 MO    24 (   18) HAS LZ(WEIGHT)=-1.00( 50.0%)  1.00( 50.0%) 
 MO    25 (   18) HAS LZ(WEIGHT)=-1.00( 50.0%)  1.00( 50.0%) 
 MO    26 (   19) HAS LZ(WEIGHT)= 0.00(100.0%) 
 MO    27 (   20) HAS LZ(WEIGHT)= 0.00(100.0%) 
 MO    28 (   21) HAS LZ(WEIGHT)=-2.00( 50.0%)  2.00( 50.0%) 
 MO    29 (   21) HAS LZ(WEIGHT)=-2.00( 50.0%)  2.00( 50.0%) 
 MO    30 (   22) HAS LZ(WEIGHT)=-1.00( 50.0%)  1.00( 50.0%) 
 MO    31 (   22) HAS LZ(WEIGHT)=-1.00( 50.0%)  1.00( 50.0%) 
 MO    32 (   23) HAS LZ(WEIGHT)= 0.00(100.0%) 
 MO    33 (   24) HAS LZ(WEIGHT)= 0.00(100.0%) 
 MO    34 (   25) HAS LZ(WEIGHT)= 0.00(100.0%) 

 LZ VALUE ANALYSIS FOR THE MOS
 ----------------------------------------
 MO     1 (    1) HAS LZ(WEIGHT)= 0.00(100.0%) 
 MO     2 (    2) HAS LZ(WEIGHT)= 0.00(100.0%) 
 MO     3 (    3) HAS LZ(WEIGHT)= 0.00(100.0%) 
 MO     4 (    4) HAS LZ(WEIGHT)= 0.00(100.0%) 
 MO     5 (    5) HAS LZ(WEIGHT)=-1.00( 50.0%)  1.00( 50.0%) 
 MO     6 (    5) HAS LZ(WEIGHT)=-1.00( 50.0%)  1.00( 50.0%) 
 MO     7 (    6) HAS LZ(WEIGHT)= 0.00(100.0%) 
 MO     8 (    7) HAS LZ(WEIGHT)= 0.00(100.0%) 
 MO     9 (    8) HAS LZ(WEIGHT)=-1.00( 50.0%)  1.00( 50.0%) 
 MO    10 (    8) HAS LZ(WEIGHT)=-1.00( 50.0%)  1.00( 50.0%) 
 MO    11 (    9) HAS LZ(WEIGHT)= 0.00(100.0%) 
 MO    12 (   10) HAS LZ(WEIGHT)=-1.00( 50.0%)  1.00( 50.0%) 
 MO    13 (   10) HAS LZ(WEIGHT)=-1.00( 50.0%)  1.00( 50.0%) 
 MO    14 (   11) HAS LZ(WEIGHT)= 0.00(100.0%) 
 MO    15 (   12) HAS LZ(WEIGHT)= 0.00(100.0%) 
 MO    16 (   13) HAS LZ(WEIGHT)=-1.00( 50.0%)  1.00( 50.0%) 
 MO    17 (   13) HAS LZ(WEIGHT)=-1.00( 50.0%)  1.00( 50.0%) 
 MO    18 (   14) HAS LZ(WEIGHT)= 0.00(100.0%) 
 MO    19 (   15) HAS LZ(WEIGHT)=-2.00( 50.0%)  2.00( 50.0%) 
 MO    20 (   15) HAS LZ(WEIGHT)=-2.00( 50.0%)  2.00( 50.0%) 
 MO    21 (   16) HAS LZ(WEIGHT)=-1.00( 50.0%)  1.00( 50.0%) 
 MO    22 (   16) HAS LZ(WEIGHT)=-1.00( 50.0%)  1.00( 50.0%) 
 MO    23 (   17) HAS LZ(WEIGHT)= 0.00(100.0%) 
 MO    24 (   18) HAS LZ(WEIGHT)=-1.00( 50.0%)  1.00( 50.0%) 
 MO    25 (   18) HAS LZ(WEIGHT)=-1.00( 50.0%)  1.00( 50.0%) 
 MO    26 (   19) HAS LZ(WEIGHT)= 0.00(100.0%) 
 MO    27 (   20) HAS LZ(WEIGHT)= 0.00(100.0%) 
 MO    28 (   21) HAS LZ(WEIGHT)=-2.00( 50.0%)  2.00( 50.0%) 
 MO    29 (   21) HAS LZ(WEIGHT)=-2.00( 50.0%)  2.00( 50.0%) 
 MO    30 (   22) HAS LZ(WEIGHT)=-1.00( 50.0%)  1.00( 50.0%) 
 MO    31 (   22) HAS LZ(WEIGHT)=-1.00( 50.0%)  1.00( 50.0%) 
 MO    32 (   23) HAS LZ(WEIGHT)= 0.00(100.0%) 
 MO    33 (   24) HAS LZ(WEIGHT)= 0.00(100.0%) 
 MO    34 (   25) HAS LZ(WEIGHT)= 0.00(100.0%) 
 ...... END OF UHF CALCULATION ......
 STEP CPU TIME =     0.00 TOTAL CPU TIME =          0.1 (      0.0 MIN)
 TOTAL WALL CLOCK TIME=          0.1 SECONDS, CPU UTILIZATION IS    98.92%
 ..... END OF 1-ELECTRON GRADIENT ......
 STEP CPU TIME =     0.00 TOTAL CPU TIME =          0.1 (      0.0 MIN)
 TOTAL WALL CLOCK TIME=          0.1 SECONDS, CPU UTILIZATION IS    98.93%
 ...... END OF 2-ELECTRON GRADIENT ......
 STEP CPU TIME =     0.02 TOTAL CPU TIME =          0.1 (      0.0 MIN)
 TOTAL WALL CLOCK TIME=          0.1 SECONDS, CPU UTILIZATION IS    99.24%

          NSERCH=  1     ENERGY=    -363.7771055

                                 -----------------------
                                 GRADIENT (HARTREE/BOHR)
                                 -----------------------
        ATOM     ZNUC       DE/DX         DE/DY         DE/DZ
 --------------------------------------------------------------
    1  SI          14.0     0.0000000     0.0000000    -0.0027155
    2  O            8.0     0.0000000     0.0000000     0.0027155

          MAXIMUM GRADIENT = 0.0027155    RMS GRADIENT = 0.0015678

 NSERCH:   1  E=     -363.7771054999  GRAD. MAX=  0.0027155  R.M.S.=  0.0015678

          HESSIAN UPDATED USING THE BFGS FORMULA
             ACTUAL ENERGY CHANGE WAS  -0.0038197605
          PREDICTED ENERGY CHANGE WAS  -0.0037616270 RATIO=  1.015
          MIN SEARCH, CORRECT HESSIAN, TRYING PURE NR STEP
               NR STEP HAS LENGTH         =   0.002959
          RADIUS OF STEP TAKEN=   0.00296  CURRENT TRUST RADIUS=   0.15526

 BEGINNING GEOMETRY SEARCH POINT NSERCH=   2 ...

 COORDINATES OF ALL ATOMS ARE (ANGS)
   ATOM   CHARGE       X              Y              Z
 ------------------------------------------------------------
 SI         14.0   0.0000000000   0.0000000000   0.5392887240
 O           8.0   0.0000000000   0.0000000000  -0.9518777240

          INTERNUCLEAR DISTANCES (ANGS.)
          ------------------------------

                1 SI         2 O     

   1 SI      0.0000000    1.4911664 *
   2 O       1.4911664 *  0.0000000  

  * ... LESS THAN  3.000

 ...... END OF ONE-ELECTRON INTEGRALS ......
 STEP CPU TIME =     0.00 TOTAL CPU TIME =          0.1 (      0.0 MIN)
 TOTAL WALL CLOCK TIME=          0.1 SECONDS, CPU UTILIZATION IS    99.24%
 TOTAL NUMBER OF NONZERO TWO-ELECTRON INTEGRALS =               46351
          4 INTEGRAL RECORDS WERE STORED ON DISK FILE  8.
  ...... END OF TWO-ELECTRON INTEGRALS .....
 STEP CPU TIME =     0.00 TOTAL CPU TIME =          0.1 (      0.0 MIN)
 TOTAL WALL CLOCK TIME=          0.1 SECONDS, CPU UTILIZATION IS    99.23%

          ---------------------------
                  UHF SCF CALCULATION
          ---------------------------
     DENSITY MATRIX CONV=  1.00E-05

 ITER EX      TOTAL ENERGY        E CHANGE  DENSITY CHANGE    ORB. GRAD 
          ---------------START SECOND ORDER SCF---------------
   1  0     -363.7771085794  -363.7771085794   0.000752948   0.000505157
   2  1     -363.7771098464    -0.0000012670   0.000412088   0.000225789
   3  2     -363.7771102353    -0.0000003890   0.000229936   0.000059490
   4  3     -363.7771102627    -0.0000000273   0.000018240   0.000008921
   5  4     -363.7771102637    -0.0000000010   0.000012224   0.000002340
   6  5     -363.7771102638    -0.0000000001   0.000003397   0.000000612
   7  6     -363.7771102638    -0.0000000000   0.000000686   0.000000272

          -----------------
          DENSITY CONVERGED
          -----------------
     TIME TO FORM FOCK OPERATORS=       0.0 SECONDS (       0.0 SEC/ITER)
     TIME TO SOLVE SCF EQUATIONS=       0.0 SECONDS (       0.0 SEC/ITER)

 FINAL UHF ENERGY IS     -363.7771102638 AFTER   7 ITERATIONS

          --------------------
          SPIN SZ   =    0.000
          S-SQUARED =   -0.000
          --------------------

 LZ VALUE ANALYSIS FOR THE MOS
 ----------------------------------------
 MO     1 (    1) HAS LZ(WEIGHT)= 0.00(100.0%) 
 MO     2 (    2) HAS LZ(WEIGHT)= 0.00(100.0%) 
 MO     3 (    3) HAS LZ(WEIGHT)= 0.00(100.0%) 
 MO     4 (    4) HAS LZ(WEIGHT)= 0.00(100.0%) 
 MO     5 (    5) HAS LZ(WEIGHT)=-1.00( 50.0%)  1.00( 50.0%) 
 MO     6 (    5) HAS LZ(WEIGHT)=-1.00( 50.0%)  1.00( 50.0%) 
 MO     7 (    6) HAS LZ(WEIGHT)= 0.00(100.0%) 
 MO     8 (    7) HAS LZ(WEIGHT)= 0.00(100.0%) 
 MO     9 (    8) HAS LZ(WEIGHT)=-1.00( 50.0%)  1.00( 50.0%) 
 MO    10 (    8) HAS LZ(WEIGHT)=-1.00( 50.0%)  1.00( 50.0%) 
 MO    11 (    9) HAS LZ(WEIGHT)= 0.00(100.0%) 
 MO    12 (   10) HAS LZ(WEIGHT)=-1.00( 50.0%)  1.00( 50.0%) 
 MO    13 (   10) HAS LZ(WEIGHT)=-1.00( 50.0%)  1.00( 50.0%) 
 MO    14 (   11) HAS LZ(WEIGHT)= 0.00(100.0%) 
 MO    15 (   12) HAS LZ(WEIGHT)= 0.00(100.0%) 
[...]
                  -68.8119   -20.5416    -6.1693    -4.2704    -4.2702
                     A          A          A          A          A   
    1  SI 1  S   -0.996873  -0.000012   0.268300  -0.000121   0.000000
    2  SI 1  S   -0.012402   0.000070  -1.030835  -0.000027   0.000000
    3  SI 1  X    0.000000   0.000000   0.000000   0.000000  -0.916432
    4  SI 1  Y    0.000000   0.000000   0.000000   0.000000  -0.387138
    5  SI 1  Z    0.000032  -0.000005  -0.001154  -0.994873   0.000000
    6  SI 1  S    0.016852  -0.000447  -0.003537   0.000585   0.000000
    7  SI 1  X    0.000000   0.000000   0.000000   0.000000  -0.018087
    8  SI 1  Y    0.000000   0.000000   0.000000   0.000000  -0.007641
    9  SI 1  Z   -0.000240   0.000249  -0.000862  -0.015723   0.000000
   10  SI 1  S   -0.001967   0.000346   0.001945   0.000465   0.000000
   11  SI 1  X    0.000000   0.000000   0.000000   0.000000   0.004640
   12  SI 1  Y    0.000000   0.000000   0.000000   0.000000   0.001960
   13  SI 1  Z   -0.000017  -0.000338   0.000054   0.003336   0.000000
   14  SI 1 XX   -0.005918   0.000098  -0.002501  -0.000189   0.000000
   15  SI 1 YY   -0.005918   0.000098  -0.002501  -0.000189   0.000000
   16  SI 1 ZZ   -0.005755   0.000089  -0.001534  -0.001631   0.000000
   17  SI 1 XY    0.000000   0.000000   0.000000   0.000000   0.000000
   18  SI 1 XZ    0.000000   0.000000   0.000000   0.000000  -0.000502
   19  SI 1 YZ    0.000000   0.000000   0.000000   0.000000  -0.000212
   20  O  2  S    0.000009  -0.994700   0.000706  -0.002325   0.000000
   21  O  2  S    0.000152  -0.020775  -0.000894   0.003954   0.000000
   22  O  2  X    0.000000   0.000000   0.000000   0.000000  -0.000723
   23  O  2  Y    0.000000   0.000000   0.000000   0.000000  -0.000306
   24  O  2  Z    0.000115  -0.000972  -0.001754   0.006006   0.000000
   25  O  2  S   -0.000357  -0.004262  -0.001455   0.001652   0.000000
   26  O  2  X    0.000000   0.000000   0.000000   0.000000   0.000237
   27  O  2  Y    0.000000   0.000000   0.000000   0.000000   0.000100
   28  O  2  Z   -0.000230   0.000302  -0.001017   0.002210   0.000000
   29  O  2 XX    0.000016   0.004082   0.000391  -0.000983   0.000000
   30  O  2 YY    0.000016   0.004082   0.000391  -0.000983   0.000000
   31  O  2 ZZ   -0.000115   0.003909  -0.001079   0.003397   0.000000
   32  O  2 XY    0.000000   0.000000   0.000000   0.000000   0.000000
   33  O  2 XZ    0.000000   0.000000   0.000000   0.000000  -0.000528
   34  O  2 YZ    0.000000   0.000000   0.000000   0.000000  -0.000223

                      6          7          8          9         10
                   -4.2702    -1.2677    -0.6079    -0.4748    -0.4748
                     A          A          A          A          A   
    1  SI 1  S    0.000000   0.021753   0.047495   0.000000   0.000000
    2  SI 1  S    0.000000  -0.108466  -0.227690   0.000000   0.000000
    3  SI 1  X   -0.387138   0.000000   0.000000  -0.020754   0.099519
    4  SI 1  Y    0.916432   0.000000   0.000000  -0.099519  -0.020754
    5  SI 1  Z    0.000000   0.089421   0.044619   0.000000   0.000000
    6  SI 1  S    0.000000   0.177829   0.537301   0.000000   0.000000
    7  SI 1  X   -0.007641   0.000000   0.000000   0.051290  -0.245938
    8  SI 1  Y    0.018087   0.000000   0.000000   0.245938   0.051290
    9  SI 1  Z    0.000000  -0.139548  -0.086435   0.000000   0.000000
   10  SI 1  S    0.000000   0.003871   0.099266   0.000000   0.000000
   11  SI 1  X    0.001960   0.000000   0.000000   0.018499  -0.088706
   12  SI 1  Y   -0.004640   0.000000   0.000000   0.088706   0.018499
   13  SI 1  Z    0.000000   0.017823   0.069628   0.000000   0.000000
   14  SI 1 XX    0.000000  -0.032145  -0.026275   0.000000   0.000000
   15  SI 1 YY    0.000000  -0.032145  -0.026275   0.000000   0.000000
   16  SI 1 ZZ    0.000000   0.057020   0.043809   0.000000   0.000000
   17  SI 1 XY    0.000000   0.000000   0.000000   0.000000   0.000000
   18  SI 1 XZ   -0.000212   0.000000   0.000000  -0.017119   0.082087
   19  SI 1 YZ    0.000502   0.000000   0.000000  -0.082087  -0.017119
   20  O  2  S    0.000000  -0.213292   0.075094   0.000000   0.000000
   21  O  2  S    0.000000   0.485318  -0.165120   0.000000   0.000000
   22  O  2  X   -0.000306   0.000000   0.000000   0.111976  -0.536933
   23  O  2  Y    0.000723   0.000000   0.000000   0.536933   0.111976
   24  O  2  Z    0.000000   0.101643   0.473504   0.000000   0.000000
   25  O  2  S    0.000000   0.405685  -0.345838   0.000000   0.000000
   26  O  2  X    0.000100   0.000000   0.000000   0.086304  -0.413835
   27  O  2  Y   -0.000237   0.000000   0.000000   0.413835   0.086304
   28  O  2  Z    0.000000   0.026713   0.255303   0.000000   0.000000
   29  O  2 XX    0.000000   0.002930  -0.001791   0.000000   0.000000
   30  O  2 YY    0.000000   0.002930  -0.001791   0.000000   0.000000
   31  O  2 ZZ    0.000000   0.031358   0.031993   0.000000   0.000000
   32  O  2 XY    0.000000   0.000000   0.000000   0.000000   0.000000
   33  O  2 XZ   -0.000223   0.000000   0.000000   0.007452  -0.035735
   34  O  2 YZ    0.000528   0.000000   0.000000   0.035735   0.007452

                     11         12         13         14         15
                   -0.4325     0.0538     0.0538     0.1552     0.2698
                     A          A          A          A          A   
    1  SI 1  S   -0.035089   0.000000   0.000000  -0.008891  -0.051375
    2  SI 1  S    0.173425   0.000000   0.000000   0.064072   0.070241
    3  SI 1  X    0.000000   0.010031   0.146022   0.000000   0.000000
    4  SI 1  Y    0.000000  -0.146022   0.010031   0.000000   0.000000
    5  SI 1  Z    0.172119   0.000000   0.000000  -0.040333   0.115287
    6  SI 1  S   -0.387359   0.000000   0.000000  -0.020709  -1.369589
    7  SI 1  X    0.000000  -0.026307  -0.382938   0.000000   0.000000
    8  SI 1  Y    0.000000   0.382938  -0.026307   0.000000   0.000000
    9  SI 1  Z   -0.471363   0.000000   0.000000   0.101809  -0.598440
   10  SI 1  S   -0.384990   0.000000   0.000000  -0.653899   1.736248
   11  SI 1  X    0.000000  -0.050094  -0.729185   0.000000   0.000000
   12  SI 1  Y    0.000000   0.729185  -0.050094   0.000000   0.000000
   13  SI 1  Z   -0.073896   0.000000   0.000000   1.168665   0.391003
   14  SI 1 XX   -0.041699   0.000000   0.000000  -0.068414  -0.075350
   15  SI 1 YY   -0.041699   0.000000   0.000000  -0.068414  -0.075350
   16  SI 1 ZZ    0.065050   0.000000   0.000000   0.110744   0.000213
   17  SI 1 XY    0.000000   0.000000   0.000000   0.000000   0.000000
   18  SI 1 XZ    0.000000  -0.005714  -0.083173   0.000000   0.000000
   19  SI 1 YZ    0.000000   0.083173  -0.005714   0.000000   0.000000
   20  O  2  S    0.000690   0.000000   0.000000  -0.080898   0.017229
   21  O  2  S    0.008822   0.000000   0.000000   0.033118   0.032102
   22  O  2  X    0.000000   0.017272   0.251422   0.000000   0.000000
   23  O  2  Y    0.000000  -0.251422   0.017272   0.000000   0.000000
   24  O  2  Z    0.344646   0.000000   0.000000   0.093453   0.073295
   25  O  2  S   -0.090349   0.000000   0.000000   0.974650  -0.381216
   26  O  2  X    0.000000   0.023546   0.342743   0.000000   0.000000
   27  O  2  Y    0.000000  -0.342743   0.023546   0.000000   0.000000
   28  O  2  Z    0.200649   0.000000   0.000000   0.101778  -0.055636
   29  O  2 XX   -0.001649   0.000000   0.000000  -0.064515   0.030791
   30  O  2 YY   -0.001649   0.000000   0.000000  -0.064515   0.030791
   31  O  2 ZZ    0.021196   0.000000   0.000000  -0.053039   0.006159
   32  O  2 XY    0.000000   0.000000   0.000000   0.000000   0.000000
   33  O  2 XZ    0.000000   0.000383   0.005580   0.000000   0.000000
   34  O  2 YZ    0.000000  -0.005580   0.000383   0.000000   0.000000

                     16         17         18         19         20
                    0.3574     0.3574     0.5440     0.7077     0.7077
                     A          A          A          A          A   
    1  SI 1  S    0.000000   0.000000  -0.027156   0.000000   0.000000
    2  SI 1  S    0.000000   0.000000   0.039683   0.000000   0.000000
    3  SI 1  X    0.015230  -0.292120   0.000000   0.000000   0.000000
    4  SI 1  Y    0.292120   0.015230   0.000000   0.000000   0.000000
    5  SI 1  Z    0.000000   0.000000  -0.230960   0.000000   0.000000
    6  SI 1  S    0.000000   0.000000  -0.725368   0.000000   0.000000
    7  SI 1  X   -0.068531   1.314470   0.000000   0.000000   0.000000
    8  SI 1  Y   -1.314470  -0.068531   0.000000   0.000000   0.000000
    9  SI 1  Z    0.000000   0.000000   1.169670   0.000000   0.000000
   10  SI 1  S    0.000000   0.000000   0.568054   0.000000   0.000000
   11  SI 1  X    0.059636  -1.143872   0.000000   0.000000   0.000000
   12  SI 1  Y    1.143872   0.059636   0.000000   0.000000   0.000000
   13  SI 1  Z    0.000000   0.000000  -0.901247   0.000000   0.000000
   14  SI 1 XX    0.000000   0.000000  -0.279896   0.000054  -0.861393
   15  SI 1 YY    0.000000   0.000000  -0.279896  -0.000054   0.861393
   16  SI 1 ZZ    0.000000   0.000000   0.476566   0.000000   0.000000
   17  SI 1 XY    0.000000   0.000000   0.000000   0.994651   0.000062
   18  SI 1 XZ   -0.002794   0.053594   0.000000   0.000000   0.000000
   19  SI 1 YZ   -0.053594  -0.002794   0.000000   0.000000   0.000000
   20  O  2  S    0.000000   0.000000  -0.014302   0.000000   0.000000
   21  O  2  S    0.000000   0.000000   0.096197   0.000000   0.000000
   22  O  2  X    0.003966  -0.076066   0.000000   0.000000   0.000000
   23  O  2  Y    0.076066   0.003966   0.000000   0.000000   0.000000
   24  O  2  Z    0.000000   0.000000   0.284086   0.000000   0.000000
   25  O  2  S    0.000000   0.000000  -0.144947   0.000000   0.000000
   26  O  2  X    0.002777  -0.053268   0.000000   0.000000   0.000000
   27  O  2  Y    0.053268   0.002777   0.000000   0.000000   0.000000
   28  O  2  Z    0.000000   0.000000   0.301564   0.000000   0.000000
   29  O  2 XX    0.000000   0.000000   0.025580   0.000002  -0.038306
   30  O  2 YY    0.000000   0.000000   0.025580  -0.000002   0.038306
   31  O  2 ZZ    0.000000   0.000000   0.009302   0.000000   0.000000
   32  O  2 XY    0.000000   0.000000   0.000000   0.044232   0.000003
   33  O  2 XZ   -0.000997   0.019126   0.000000   0.000000   0.000000
   34  O  2 YZ   -0.019126  -0.000997   0.000000   0.000000   0.000000

                     21
                    0.8235
                     A   
    1  SI 1  S    0.000000
    2  SI 1  S    0.000000
    3  SI 1  X   -0.019515
    4  SI 1  Y    0.017109
    5  SI 1  Z    0.000000
    6  SI 1  S    0.000000
    7  SI 1  X    0.086603
    8  SI 1  Y   -0.075927
    9  SI 1  Z    0.000000
   10  SI 1  S    0.000000
   11  SI 1  X    0.059541
   12  SI 1  Y   -0.052202
   13  SI 1  Z    0.000000
   14  SI 1 XX    0.000000
   15  SI 1 YY    0.000000
   16  SI 1 ZZ    0.000000
   17  SI 1 XY    0.000000
   18  SI 1 XZ   -0.777034
   19  SI 1 YZ    0.681246
   20  O  2  S    0.000000
   21  O  2  S    0.000000
   22  O  2  X   -0.213420
   23  O  2  Y    0.187111
   24  O  2  Z    0.000000
   25  O  2  S    0.000000
   26  O  2  X   -0.203828
   27  O  2  Y    0.178701
   28  O  2  Z    0.000000
   29  O  2 XX    0.000000
   30  O  2 YY    0.000000
   31  O  2 ZZ    0.000000
   32  O  2 XY    0.000000
   33  O  2 XZ    0.032379
   34  O  2 YZ   -0.028388

     ----------------------------------------------------------------
     PROPERTY VALUES FOR THE UHF   SELF-CONSISTENT FIELD WAVEFUNCTION
     ----------------------------------------------------------------

          -----------------
          ENERGY COMPONENTS
          -----------------

         WAVEFUNCTION NORMALIZATION =       1.0000000000

                ONE ELECTRON ENERGY =    -583.8797242038
                TWO ELECTRON ENERGY =     180.3485272833
           NUCLEAR REPULSION ENERGY =      39.7540865314
                                      ------------------
                       TOTAL ENERGY =    -363.7771103891

 ELECTRON-ELECTRON POTENTIAL ENERGY =     180.3485272833
  NUCLEUS-ELECTRON POTENTIAL ENERGY =    -947.3058570278
   NUCLEUS-NUCLEUS POTENTIAL ENERGY =      39.7540865314
                                      ------------------
             TOTAL POTENTIAL ENERGY =    -727.2032432132
               TOTAL KINETIC ENERGY =     363.4261328241
                 VIRIAL RATIO (V/T) =       2.0009657466

  ...... PI ENERGY ANALYSIS ......

 ENERGY ANALYSIS:
            FOCK ENERGY=   -223.1826695777
          BARE H ENERGY=   -583.8797242038
     ELECTRONIC ENERGY =   -403.5311968907
         KINETIC ENERGY=    363.4261328241
          N-N REPULSION=     39.7540865314
           TOTAL ENERGY=   -363.7771103593
        SIGMA PART(1+2)=   -322.9402706034
               (K,V1,2)=    307.0374353836   -748.7153220317    118.7376160447
           PI PART(1+2)=    -80.5909262873
               (K,V1,2)=     56.3886974405   -198.5905349961     61.6109112683
  SIGMA SKELETON, ERROR=   -283.1861840720     -0.0000000000
             MIXED PART= 0.00000E+00 0.00000E+00 0.00000E+00 0.00000E+00
 ...... END OF PI ENERGY ANALYSIS ......

          ---------------------------------------
          MULLIKEN AND LOWDIN POPULATION ANALYSES
          ---------------------------------------

     ATOMIC MULLIKEN POPULATION IN EACH MOLECULAR ORBITAL
        ALPHA ORBITALS

                      1          2          3          4          5

                  1.000000   1.000000   1.000000   1.000000   1.000000

    1             0.999990  -0.000010   0.999528   0.998972   0.999992
    2             0.000010   1.000010   0.000472   0.001028   0.000008

                      6          7          8          9         10

                  1.000000   1.000000   1.000000   1.000000   1.000000

    1             0.999992   0.164069   0.368610   0.195042   0.195042
    2             0.000008   0.835931   0.631390   0.804958   0.804958

                     11

                  1.000000

    1             0.776756
    2             0.223244

     ATOMIC MULLIKEN POPULATION IN EACH MOLECULAR ORBITAL
         BETA ORBITALS

                      1          2          3          4          5

                  1.000000   1.000000   1.000000   1.000000   1.000000

    1             0.999990  -0.000010   0.999528   0.998972   0.999992
    2             0.000010   1.000010   0.000472   0.001028   0.000008

                      6          7          8          9         10

                  1.000000   1.000000   1.000000   1.000000   1.000000

    1             0.999992   0.164069   0.368610   0.195042   0.195042
    2             0.000008   0.835931   0.631390   0.804958   0.804958

                     11

                  1.000000

    1             0.776756
    2             0.223244

     ATOMIC SPIN POPULATION (ALPHA MINUS BETA)
       ATOM         MULL.POP.                    LOW.POP.
    1 SI            0.000000                     0.000000
    2 O             0.000000                     0.000000


          ********* ALL ELECTRONS ********

               ----- POPULATIONS IN EACH AO -----
                             MULLIKEN      LOWDIN
              1  SI 1  S      1.99918     1.99900
              2  SI 1  S      2.00139     1.97444
              3  SI 1  X      1.99100     1.95813
              4  SI 1  Y      1.99100     1.95813
              5  SI 1  Z      1.99612     1.97080
              6  SI 1  S      1.20834     0.56711
              7  SI 1  X      0.25805     0.26527
              8  SI 1  Y      0.25805     0.26527
              9  SI 1  Z      0.69310     0.60795
             10  SI 1  S      0.57293     0.54661
             11  SI 1  X      0.08239     0.12688
             12  SI 1  Y      0.08239     0.12688
             13  SI 1  Z      0.06696     0.17853
             14  SI 1 XX      0.00363     0.22662
             15  SI 1 YY      0.00363     0.22662
             16  SI 1 ZZ      0.07055     0.30536
             17  SI 1 XY      0.00000     0.00000
             18  SI 1 XZ      0.05863     0.07854
             19  SI 1 YZ      0.05863     0.07854
             20  O  2  S      1.99558     1.97822
             21  O  2  S      0.92790     0.72928
             22  O  2  X      0.88256     0.84512
             23  O  2  Y      0.88256     0.84512
             24  O  2  Z      1.02915     0.98378
             25  O  2  S      0.87877     0.48466
             26  O  2  X      0.71945     0.71861
             27  O  2  Y      0.71945     0.71861
             28  O  2  Z      0.50732     0.67104
             29  O  2 XX      0.00415     0.17656
             30  O  2 YY      0.00415     0.17656
             31  O  2 ZZ      0.03715     0.19686
             32  O  2 XY      0.00000     0.00000
             33  O  2 XZ      0.00792     0.00745
             34  O  2 YZ      0.00792     0.00745

          ----- MULLIKEN ATOMIC OVERLAP POPULATIONS -----
          (OFF-DIAGONAL ELEMENTS NEED TO BE MULTIPLIED BY 2)

             1           2

    1   12.7980949
    2    0.5978695   8.0061662

          TOTAL MULLIKEN AND LOWDIN ATOMIC POPULATIONS
       ATOM         MULL.POP.    CHARGE          LOW.POP.     CHARGE
    1 SI           13.395964    0.604036        13.460682    0.539318
    2 O             8.604036   -0.604036         8.539318   -0.539318

          -------------------------------
          BOND ORDER AND VALENCE ANALYSIS     BOND ORDER THRESHOLD=0.050
          -------------------------------

                   BOND                       BOND                       BOND
  ATOM PAIR DIST  ORDER      ATOM PAIR DIST  ORDER      ATOM PAIR DIST  ORDER
    1   2  1.491  2.101

                       TOTAL       BONDED        FREE
      ATOM            VALENCE     VALENCE     VALENCE
    1 SI                2.101       2.101      -0.000
    2 O                 2.101       2.101      -0.000

          -----------------------------------------
          ATOMIC SPIN DENSITY AT THE NUCLEUS (A.U.)
          -----------------------------------------
                            SPIN DENS    ALPHA DENS     BETA DENS
    1  SI          14.0     0.0000000     827.22707     827.22707
    2  O            8.0     0.0000000     145.40557     145.40557

          ---------------------
          ELECTROSTATIC MOMENTS
          ---------------------

 POINT   1           X           Y           Z (BOHR)    CHARGE
                 0.000000    0.000000   -0.005990        0.00 (A.U.)
         DX          DY          DZ         /D/  (DEBYE)
     0.000000    0.000000    3.271523    3.271523
 ...... END OF PROPERTY EVALUATION ......
 STEP CPU TIME =     0.00 TOTAL CPU TIME =          0.1 (      0.0 MIN)
 TOTAL WALL CLOCK TIME=          0.1 SECONDS, CPU UTILIZATION IS    99.49%
  $VIB   
          IVIB=   0 IATOM=   0 ICOORD=   0 E=     -363.7771103891
  0.000000000E+00 0.000000000E+00 2.197560836E-06 0.000000000E+00 0.000000000E+00
 -2.197553526E-06
  0.000000000E+00 0.000000000E+00 3.271523439E+00
 ......END OF GEOMETRY SEARCH......
 STEP CPU TIME =     0.00 TOTAL CPU TIME =          0.1 (      0.0 MIN)
 TOTAL WALL CLOCK TIME=          0.1 SECONDS, CPU UTILIZATION IS    99.49%
               990205  WORDS OF DYNAMIC MEMORY USED
 EXECUTION OF GAMESS TERMINATED NORMALLY 19:56:10 20-OCT-2025    
----- accounting info -----
Files used on the parent node Macbooks-MacBook-Pro.local were:
-rw-r--r--  1 macbookpro  staff      241 Oct 20 19:56 /Users/macbookpro/local/gamess/scr/sio_q0m1_uhf_631g_star.F05
-rw-r--r--  1 macbookpro  staff   720064 Oct 20 19:56 /Users/macbookpro/local/gamess/scr/sio_q0m1_uhf_631g_star.F08
-rw-r--r--  1 macbookpro  staff  2094080 Oct 20 19:56 /Users/macbookpro/local/gamess/scr/sio_q0m1_uhf_631g_star.F10
-rw-r--r--  1 macbookpro  staff   117311 Oct 20 19:56 /Users/macbookpro/local/gamess/scr/sio_q0m1_uhf_631g_star.dat
Mon Oct 20 19:56:10 +07 2025
0.187u 0.054s 0:00.25 92.0%	0+0k 0+0io 46pf+0w
