1 : so2_q0m1_uhf_631g_star.inp
----- GAMESS execution script 'rungms' -----
This job is running on host Macbooks-MacBook-Pro.local
under operating system Darwin at Mon Oct 20 19:56:12 +07 2025
Available scratch disk space (Kbyte units) at beginning of the job is
Filesystem   1024-blocks      Used Available Capacity iused      ifree %iused  Mounted on
/dev/disk3s5   482797652 122177724 339915488    27% 1896443 3399154880    0%   /System/Volumes/Data
GAMESS temporary binary files will be written to /Users/macbookpro/local/gamess/scr
GAMESS supplementary output files will be written to /Users/macbookpro/local/gamess/scr
Copying input file /Users/macbookpro/sq2_data/so2_q0m1_uhf_631g_star.inp to your run's scratch directory...
          *******************************************************
          *                                                     *
          *          GAMESS VERSION = 30 JUN 2023 (R1)          *
          *                                                     *
          *              doi.org/10.1063/5.0005188              *
          *                                                     *
          **************** 64 BIT LINUX VERSION *****************

  GAMESS HAS BEEN MADE POSSIBLE WITH IMPORTANT CONTRIBUTIONS FROM
  THE FOLLOWING INDIVIDUALS (IN ALPHABETICAL ORDER):

     IVANA ADAMOVIC, CHRISTINE AIKENS, TOMOKO AKAMA,
     MELISA ALKAN, YURI ALEXEEV, YURIKO AOKI, POOJA ARORA,
     TOSHIO ASADA, ANDREY ASADCHEV, KIM K. BALDRIDGE,
     PRADIPTA BANDYOPADHYAY, TAYLOR A. BARNES, MARIA BARYSZ,
     ROB BELL, JONATHAN BENTZ, COLLEEN BERTONI,
     JERRY A. BOATZ, BRETT BODE, KURT BRORSEN, KURT R. BRORSEN,
     LAIMUTIS BYTAUTAS, CALEB CARLIN, LAURA CARRINGTON,
     GALINA CHABAN, BENOIT CHAMPAGNE, WEI CHEN, MAHITO CHIBA,
     DAN CHIPMAN, CHEOL HO CHOI, TANNER CULPITT,
     DIPAYAN DATTA, PAUL DAY, ALBERT DEFUSCO,
     NUWAN DESILVA, J. EMILIANO DEUSTUA,
     TIM DUDLEY, MICHEL DUPUIS, STEVEN T. ELBERT,
     DMITRI FEDOROV, KATHERINE FERRERAS, MICHAEL FILATOV,
     ALEX FINDLATER,GRAHAM FLETCHER, MARK FREITAG,
     CHRISTIAN FRIEDL, DAVID GARMER, 
     IGOR S. GERASIMOV, KURT GLAESEMANN,
     MARK S. GORDON, JEFFREY R. GOUR, FENG LONG GU,
     EMILIE B. GUIDEZ, ANASTASIA GUNINA, SHARON HAMMES-SCHIFFER,
     MASATAKE HARUTA, KIMIHIKO HIRAO, YASUHIRO IKABATA,
     TZVETELIN IORDANOV, STEPHAN IRLE, KAZUYA ISHIMURA,
     JOE IVANIC, FRANK JENSEN, JAN H. JENSEN, VISVALDAS KAIRYS,
     MUNEAKI KAMIYA, MICHIO KATOUDA, NAOAKI KAWAKAMI, DAN KEMP,
     BERNARD KIRTMAN, KAZUO KITAURA, MARIUSZ KLOBUKOWSKI,
     MASATO KOBAYASHI, KONSTANTIN KOMAROV, PRAKASHAN KORAMBATH,
     JACEK KORCHOWIEC, SHIRO KOSEKI, KAROL KOWALSKI,
     JIMMY KROMANN, STANISLAW A. KUCHARSKI, HENRY KURTZ,
     SAROM SOK LEANG, SEUNGHOON LEE, HUI LI, SHUHUA LI, WEI LI,
     JESSE J. LUTZ, ALEKSANDR O. LYKHIN,
     ILIAS MAGOULAS, MARCIN MAKOWSKI,
     JOANI MATO, NIKITA MATSUNAGA, BENEDETTA MENNUCCI,
     GRANT MERRILL, NORIYUKI MINEZAWA, VLADIMIR MIRONOV,
     EISAKU MIYOSHI, JOHN A. MONTGOMERY JR., HIROTOSHI MORI,
     JONATHAN MULLIN, MONIKA MUSIAL, SHIGERU NAGASE,
     TAKESHI NAGATA, HIROMI NAKAI, TAKAHITO NAKAJIMA,
     YUYA NAKAJIMA, HARUYUKI NAKANO, HIROYA NAKATA, SEAN NEDD,
     HEATHER NETZLOFF, KIET A. NGUYEN, YOSHIO NISHIMOTO,
     BOSILJKA NJEGIC, RYAN OLSON, MIKE PAK, ROBERTO PEVERATI,
     BUU PHAM, PIOTR PIECUCH, ANNA POMOGAEVA, DAVID POOLE,
     SPENCER PRUITT, OLIVIER QUINET, LUKE ROSKOP,
     KLAUS RUEDENBERG, ANDREW SAND, TOSAPORN SATTASATHUCHANA,
     NOZOMI SAWADA, MICHAEL W. SCHMIDT, PATRICK E. SCHNEIDER,
     JUNJI SEINO, PRACHI SHARMA, JUN SHEN, JIM SHOEMAKER,
     YINAN SHU, DEJUN SI, JONATHAN SKONE, LYUDMILA SLIPCHENKO,
     TONY SMITH, JIE SONG, MARK SPACKMAN, CASPER STEINMANN,
     WALT STEVENS, PEIFENG SU, SHUJUN SU, CHET SWALINA,
     CHINAMI TAKASHIMA, TETSUYA TAKETSUGU, ZHEN TAO,
     NANDUN THELLAMUREGE, SEIKEN TOKURA, JACOPO TOMASI,
     TSUGUKI TOUMA, TAKAO TSUNEDA, HIROAKI UMEDA,
     JORGE LUIS GALVEZ VALLEJO, YALI WANG, SIMON WEBB,
     AARON WEST, THERESA L. WINDUS, MARTA WLOCH,
     PENG XU, KIYOSHI YAGI, SUSUMU YANAGISAWA, YANG YANG,
     SOOHAENG YOO, TAKESHI YOSHIKAWA, FEDERICO ZAHARIEV,
     TOBY ZENG

  WHO ARE SUPPORTED BY THEIR INSTITUTION/UNIVERSITY/COMPANY/GROUP
  (IN ALPHABETICAL ORDER):

     EP ANALYTICS,
     FACULTES UNIVERSITAIRES NOTRE-DAME DE LA PAIX,
     INSTITUTE FOR MOLECULAR SCIENCE, IOWA STATE UNIVERSITY,
     JACKSON STATE UNIVERSITY, JOHANNES KEPLER UNIVERSITY LINZ,
     KYUNGPOOK NATIONAL UNIVERSITY
     KYUSHU UNIVERSITY, MICHIGAN STATE UNIVERSITY,
     MIE UNIVERSITY, THE MOLECULAR SCIENCES SOFTWARE INSTITUTE,
     MOSCOW STATE UNIVERSITY,
     N. COPERNICUS UNIVERSITY, NAGOYA UNIVERSITY,
     NANJING UNIVERSITY, NAT. INST. OF ADVANCED INDUSTRIAL
     SCIENCE AND TECHNOLOGY, NATIONAL INST. OF STANDARDS AND
     TECHNOLOGY, NESMEYANOV INSTITUTE OF ORGANOELEMENT COMPOUNDS
     OF RUSSIAN ACADEMY OF SCIENCES, OSAKA PREFECTURE UNIVERSITY,
     PENNSYLVANIA STATE UNIVERSITY, TOKYO INSTITUTE OF TECHNOLOGY,
     UNIVERSITY OF AARHUS, UNIVERSITY OF ALBERTA,
     UNIVERSITY OF CALIFORNIA AT SANTA BARBARA,
     UNIVERSITY OF COPENHAGEN, UNIVERSITY OF IOWA,
     UNIVERSITY OF MEMPHIS, UNIVERSITY OF MINNESOTA,
     UNIVERSITY OF NEBRASKA, UNIVERSITY OF NEW ENGLAND,
     UNIVERSITY OF NOTRE DAME, UNIVERSITY OF PISA,
     UNIVERSITY OF SILESIA, UNIVERSITY OF TOKYO,
     UNIVERSITY OF ZURICH, WASEDA UNIVERSITY,
     YALE UNIVERSITY

  GAMESS SOFTWARE MANAGEMENT TEAM FOR THIS RELEASE:
     MARK S. GORDON (TEAM LEAD),
     BRETT BODE (SENIOR ADVISOR),
     GIUSEPPE BARCA,
     COLLEEN BERTONI,
     KRISTOPHER KEIPERT (ADVISOR),
     SAROM S. LEANG (DEVELOPMENT LEAD),
     BUU PHAM,
     JACKSON HAYES (WEBSITE ADMINISTRATOR),
     PENG XU

 EXECUTION OF GAMESS BEGUN 19:56:12 20-OCT-2025    

            ECHO OF THE FIRST FEW INPUT CARDS -
 INPUT CARD> $CONTRL SCFTYP=UHF ICHARG=0 MULT=1                                             
 INPUT CARD> RUNTYP=OPTIMIZE                                                                
 INPUT CARD> $END                                                                           
 INPUT CARD> $BASIS GBASIS=N31 NGAUSS=6 NDFUNC=1 $END                                       
 INPUT CARD> $DATA                                                                          
 INPUT CARD> ... this is comment ...                                                        
 INPUT CARD> C1                                                                             
 INPUT CARD> S    16   0.00000000  -0.00000000   0.37238610                                 
 INPUT CARD> O     8   0.00000000   1.27894135  -0.36862305                                 
 INPUT CARD> O     8  -0.00000000  -1.27894135  -0.36862305                                 
 INPUT CARD> $END                                                                           
 INPUT CARD>                                                                                
      1000000 WORDS OF MEMORY AVAILABLE

     BASIS OPTIONS
     -------------
     GBASIS=N31          IGAUSS=       6      POLAR=POPN31  
     NDFUNC=       1     NFFUNC=       0     DIFFSP=       F
     NPFUNC=       0      DIFFS=       F     BASNAM=        


     RUN TITLE
     ---------
  ... this is comment ...                                                        

 THE POINT GROUP OF THE MOLECULE IS C1      
 THE ORDER OF THE PRINCIPAL AXIS IS     0

 ATOM      ATOMIC                      COORDINATES (BOHR)
           CHARGE         X                   Y                   Z
 S          16.0     0.0000000000       -0.0000000000        0.7037076906
 O           8.0     0.0000000000        2.4168487059       -0.6965965573
 O           8.0    -0.0000000000       -2.4168487059       -0.6965965573

          INTERNUCLEAR DISTANCES (ANGS.)
          ------------------------------

                1 S          2 O          3 O     

   1 S       0.0000000    1.4781020 *  1.4781020 *
   2 O       1.4781020 *  0.0000000    2.5578827 *
   3 O       1.4781020 *  2.5578827 *  0.0000000  

  * ... LESS THAN  3.000


     ATOMIC BASIS SET
     ----------------
 THE CONTRACTED PRIMITIVE FUNCTIONS HAVE BEEN UNNORMALIZED
 THE CONTRACTED BASIS FUNCTIONS ARE NOW NORMALIZED TO UNITY

  SHELL TYPE  PRIMITIVE        EXPONENT          CONTRACTION COEFFICIENT(S)

 S         

      1   S       1         21917.1000000    0.001869240849
      1   S       2          3301.4900000    0.014230306464
      1   S       3           754.1460000    0.069696231659
      1   S       4           212.7110000    0.238487108332
      1   S       5            67.9896000    0.483307219541
      1   S       6            23.0515000    0.338074153569

      2   L       7           423.7350000   -0.002376770499    0.004061009982
      2   L       8           100.7100000   -0.031693006651    0.030681299864
      2   L       9            32.1599000   -0.113317023779    0.130451999421
      2   L      10            11.8079000    0.056090011770    0.327204998547
      2   L      11             4.6311000    0.592255124284    0.452850997989
      2   L      12             1.8702500    0.455006095483    0.256041998863

      3   L      13             2.6158400   -0.250373114159   -0.014510489547
      3   L      14             0.9221670    0.066956763101    0.310262776489
      3   L      15             0.3412870    1.054506269068    0.754482456476

      4   L      16             0.1171670    1.000000000000    1.000000000000

      5   D      17             0.6500000    1.000000000000

 O         

      6   S      18          5484.6716600    0.001831074430
      6   S      19           825.2349460    0.013950172200
      6   S      20           188.0469580    0.068445078098
      6   S      21            52.9645000    0.232714335992
      6   S      22            16.8975704    0.470192897984
      6   S      23             5.7996353    0.358520852987

      7   L      24            15.5396162   -0.110777549525    0.070874268231
      7   L      25             3.5999336   -0.148026262701    0.339752839147
      7   L      26             1.0137618    1.130767015354    0.727158577316

      8   L      27             0.2700058    1.000000000000    1.000000000000

      9   D      28             0.8000000    1.000000000000

 O         

     10   S      29          5484.6716600    0.001831074430
     10   S      30           825.2349460    0.013950172200
     10   S      31           188.0469580    0.068445078098
     10   S      32            52.9645000    0.232714335992
     10   S      33            16.8975704    0.470192897984
     10   S      34             5.7996353    0.358520852987

     11   L      35            15.5396162   -0.110777549525    0.070874268231
     11   L      36             3.5999336   -0.148026262701    0.339752839147
     11   L      37             1.0137618    1.130767015354    0.727158577316

     12   L      38             0.2700058    1.000000000000    1.000000000000

     13   D      39             0.8000000    1.000000000000

 TOTAL NUMBER OF BASIS SET SHELLS             =   13
 NUMBER OF CARTESIAN GAUSSIAN BASIS FUNCTIONS =   49
 NUMBER OF ELECTRONS                          =   32
 CHARGE OF MOLECULE                           =    0
 SPIN MULTIPLICITY                            =    1
 NUMBER OF OCCUPIED ORBITALS (ALPHA)          =   16
 NUMBER OF OCCUPIED ORBITALS (BETA )          =   16
 TOTAL NUMBER OF ATOMS                        =    3
 THE NUCLEAR REPULSION ENERGY IS      104.8912797640

     $CONTRL OPTIONS
     ---------------
 SCFTYP=UHF          RUNTYP=OPTIMIZE     EXETYP=RUN     
 MPLEVL=       0     CITYP =NONE         CCTYP =NONE         VBTYP =NONE    
 DFTTYP=NONE         TDDFT =NONE    
 MULT  =       1     ICHARG=       0     NZVAR =       0     COORD =UNIQUE  
 PP    =NONE         RELWFN=NONE         LOCAL =NONE         NUMGRD=       F
 ISPHER=      -1     NOSYM =       0     MAXIT =      30     UNITS =ANGS    
 PLTORB=       F     MOLPLT=       F     AIMPAC=       F     FRIEND=        
 NPRINT=       7     IREST =       0     GEOM  =INPUT   
 NORMF =       0     NORMP =       0     ITOL  =      20     ICUT  =       9
 INTTYP=BEST         GRDTYP=BEST         QMTTOL= 1.0E-06

     $SYSTEM OPTIONS
     ---------------
  REPLICATED MEMORY=     1000000 WORDS (ON EVERY NODE).
 DISTRIBUTED MEMDDI=           0 MILLION WORDS IN AGGREGATE,
 MEMDDI DISTRIBUTED OVER   1 PROCESSORS IS           0 WORDS/PROCESSOR.
 TOTAL MEMORY REQUESTED ON EACH PROCESSOR=     1000000 WORDS.
 TIMLIM=      525600.00 MINUTES, OR     365.0 DAYS.
 PARALL= F  BALTYP=  DLB     KDIAG=    0  COREFL= F
 MXSEQ2=     300 MXSEQ3=     150  mem10=         0  mem22=         0

          ----------------
          PROPERTIES INPUT
          ----------------

     MOMENTS            FIELD           POTENTIAL          DENSITY
 IEMOM =       1   IEFLD =       0   IEPOT =       0   IEDEN =       0
 WHERE =COMASS     WHERE =NUCLEI     WHERE =NUCLEI     WHERE =NUCLEI  
 OUTPUT=BOTH       OUTPUT=BOTH       OUTPUT=BOTH       OUTPUT=BOTH    
 IEMINT=       0   IEFINT=       0                     IEDINT=       0
                                                       MORB  =       0
          EXTRAPOLATION IN EFFECT
          SOSCF IN EFFECT
          DIIS or SOSCF will be reset if energy rises
 ORBITAL PRINTING OPTION: NPREO=     1    49     2     1

     -------------------------------
     INTEGRAL TRANSFORMATION OPTIONS
     -------------------------------
     NWORD  =            0
     CUTTRF = 1.0E-09     MPTRAN =       0
     DIRTRF =       F     AOINTS =DUP     

          ----------------------
          INTEGRAL INPUT OPTIONS
          ----------------------
 NOPK  =       1 NORDER=       0 SCHWRZ=       F

     ------------------------------------------
     THE POINT GROUP IS C1 , NAXIS= 0, ORDER= 1
     ------------------------------------------

     DIMENSIONS OF THE SYMMETRY SUBSPACES ARE
 A   =   49

 ..... DONE SETTING UP THE RUN .....
 STEP CPU TIME =     0.00 TOTAL CPU TIME =          0.0 (      0.0 MIN)
 TOTAL WALL CLOCK TIME=          0.0 SECONDS, CPU UTILIZATION IS    96.63%


          -----------------------------
          STATIONARY POINT LOCATION RUN
          -----------------------------

 OBTAINING INITIAL HESSIAN, HESS=GUESS   
 CARTESIAN COORDINATE OPTIMIZATION USING BADGER'S RULE FORCE CONSTANT GUESS

          PARAMETERS CONTROLLING GEOMETRY SEARCH ARE
          METHOD =QA                  UPHESS =BFGS    
          NNEG   =         0          NFRZ   =         0
          NSTEP  =        50          IFOLOW =         1
          HESS   =GUESS               RESTAR =         F
          IHREP  =         0          HSSEND =         F
          NPRT   =         0          NPUN   =         0
          OPTTOL = 1.000E-04          RMIN   = 1.500E-03
          RMAX   = 1.000E-01          RLIM   = 7.000E-02
          DXMAX  = 3.000E-01          PURIFY =         F
          MOVIE  =         F          TRUPD  =         T
          TRMAX  = 5.000E-01          TRMIN  = 5.000E-02
          ITBMAT =         5          STPT   =         F
          STSTEP = 1.000E-02          PROJCT=          T

 BEGINNING GEOMETRY SEARCH POINT NSERCH=   0 ...

 COORDINATES OF ALL ATOMS ARE (ANGS)
   ATOM   CHARGE       X              Y              Z
 ------------------------------------------------------------
 S          16.0   0.0000000000  -0.0000000000   0.3723861000
 O           8.0   0.0000000000   1.2789413500  -0.3686230500
 O           8.0  -0.0000000000  -1.2789413500  -0.3686230500

          ********************
          1 ELECTRON INTEGRALS
          ********************
 ...... END OF ONE-ELECTRON INTEGRALS ......
 STEP CPU TIME =     0.00 TOTAL CPU TIME =          0.0 (      0.0 MIN)
 TOTAL WALL CLOCK TIME=          0.0 SECONDS, CPU UTILIZATION IS    96.98%

          -------------
          GUESS OPTIONS
          -------------
          GUESS =HUCKEL            NORB  =       0          NORDER=       0
          MIX   =       F          PRTMO =       F          PUNMO =       F
          TOLZ  = 1.0E-08          TOLE  = 1.0E-05
          SYMDEN=       F          PURIFY=       F

 INITIAL GUESS ORBITALS GENERATED BY HUCKEL   ROUTINE.
 HUCKEL GUESS REQUIRES     21634 WORDS.

 SYMMETRIES FOR INITIAL GUESS ORBITALS FOLLOW.  ALPHA SET(S).
    16 ORBITALS ARE OCCUPIED (    7 CORE ORBITALS).
     8=A        9=A       10=A       11=A       12=A       13=A       14=A   
    15=A       16=A       17=A       18=A       19=A       20=A       21=A   
    22=A       23=A       24=A       25=A       26=A   

 SYMMETRIES FOR INITIAL GUESS ORBITALS FOLLOW.   BETA SET(S).
    16 ORBITALS ARE OCCUPIED (    7 CORE ORBITALS).
     8=A        9=A       10=A       11=A       12=A       13=A       14=A   
    15=A       16=A       17=A       18=A       19=A       20=A       21=A   
    22=A       23=A       24=A       25=A       26=A   
 ...... END OF INITIAL ORBITAL SELECTION ......
 STEP CPU TIME =     0.00 TOTAL CPU TIME =          0.0 (      0.0 MIN)
 TOTAL WALL CLOCK TIME=          0.0 SECONDS, CPU UTILIZATION IS    97.69%

                    ----------------------
                    AO INTEGRAL TECHNOLOGY
                    ----------------------
     S,P,L SHELL ROTATED AXIS INTEGRALS, REPROGRAMMED BY
        KAZUYA ISHIMURA (IMS) AND JOSE SIERRA (SYNSTAR).
     S,P,D,L SHELL ROTATED AXIS INTEGRALS PROGRAMMED BY
        KAZUYA ISHIMURA (INSTITUTE FOR MOLECULAR SCIENCE).
     S,P,D,F,G SHELL TO TOTAL QUARTET ANGULAR MOMENTUM SUM 5,
        ERIC PROGRAM BY GRAHAM FLETCHER (ELORET AND NASA ADVANCED
        SUPERCOMPUTING DIVISION, AMES RESEARCH CENTER).
     S,P,D,F,G,L SHELL GENERAL RYS QUADRATURE PROGRAMMED BY
        MICHEL DUPUIS (PACIFIC NORTHWEST NATIONAL LABORATORY).

          --------------------
          2 ELECTRON INTEGRALS
          --------------------

 THE -PK- OPTION IS OFF, THE INTEGRALS ARE NOT IN SUPERMATRIX FORM.
 STORING   15000 INTEGRALS/RECORD ON DISK, USING 12 BYTES/INTEGRAL.
 TWO ELECTRON INTEGRAL EVALUATION REQUIRES   90487 WORDS OF MEMORY.
 II,JST,KST,LST =  1  1  1  1 NREC =         1 INTLOC =    1
 II,JST,KST,LST =  2  1  1  1 NREC =         1 INTLOC =    2
 II,JST,KST,LST =  3  1  1  1 NREC =         1 INTLOC =   34
 II,JST,KST,LST =  4  1  1  1 NREC =         1 INTLOC =  214
 II,JST,KST,LST =  5  1  1  1 NREC =         1 INTLOC =  776
 II,JST,KST,LST =  6  1  1  1 NREC =         1 INTLOC = 2864
 II,JST,KST,LST =  7  1  1  1 NREC =         1 INTLOC = 4973
 II,JST,KST,LST =  8  1  1  1 NREC =         2 INTLOC = 2235
 II,JST,KST,LST =  9  1  1  1 NREC =         3 INTLOC = 6949
 II,JST,KST,LST = 10  1  1  1 NREC =         6 INTLOC = 8985
 II,JST,KST,LST = 11  1  1  1 NREC =         7 INTLOC = 1725
 II,JST,KST,LST = 12  1  1  1 NREC =        10 INTLOC = 6270
 II,JST,KST,LST = 13  1  1  1 NREC =        15 INTLOC =   52
 TOTAL NUMBER OF NONZERO TWO-ELECTRON INTEGRALS =              345312
         24 INTEGRAL RECORDS WERE STORED ON DISK FILE  8.
  ...... END OF TWO-ELECTRON INTEGRALS .....
 STEP CPU TIME =     0.02 TOTAL CPU TIME =          0.0 (      0.0 MIN)
 TOTAL WALL CLOCK TIME=          0.0 SECONDS, CPU UTILIZATION IS    99.45%

          ---------------------------
                  UHF SCF CALCULATION
          ---------------------------

     NUCLEAR ENERGY =       104.8912797640
     MAXIT = 30     NPUNCH=  2     MULT=  1
     EXTRAP=T  DAMP=F  SHIFT=F  RSTRCT=F  DIIS=F  SOSCF=T
     DENSITY MATRIX CONV=  1.00E-05
     SOSCF WILL OPTIMIZE     528 ALPHA AND     528 BETA ROTATION ANGLES.
     SOGTOL= 2.500E-01
     MEMORY REQUIRED FOR UHF/ROHF ITERS=     62186 WORDS.

 ITER EX      TOTAL ENERGY        E CHANGE  DENSITY CHANGE    ORB. GRAD 
   1  0     -546.1195847866  -546.1195847866   0.560929063   0.000000000
          ---------------START SECOND ORDER SCF---------------
   2  1     -546.9545245345    -0.8349397480   0.460076127   0.153188265
   3  2     -547.0179345250    -0.0634099905   0.224185023   0.115036953
   4  3     -547.1550151397    -0.1370806147   0.038279892   0.011850683
   5  4     -547.1571371856    -0.0021220459   0.025978067   0.004270846
   6  5     -547.1574205734    -0.0002833878   0.003231476   0.000956164
   7  6     -547.1574394580    -0.0000188847   0.000969411   0.000202085
   8  7     -547.1574406659    -0.0000012079   0.000374558   0.000073660
   9  8     -547.1574407565    -0.0000000906   0.000076787   0.000024275
  10  9     -547.1574407650    -0.0000000085   0.000026830   0.000008551
  11 10     -547.1574407663    -0.0000000013   0.000013301   0.000002414
  12 11     -547.1574407664    -0.0000000001   0.000004482   0.000000632
  13 12     -547.1574407664    -0.0000000000   0.000000495   0.000000166

          -----------------
          DENSITY CONVERGED
          -----------------
     TIME TO FORM FOCK OPERATORS=       0.0 SECONDS (       0.0 SEC/ITER)
     TIME TO SOLVE SCF EQUATIONS=       0.0 SECONDS (       0.0 SEC/ITER)

 FINAL UHF ENERGY IS     -547.1574407664 AFTER  13 ITERATIONS

          --------------------
          SPIN SZ   =    0.000
          S-SQUARED =   -0.000
          --------------------

  ----- ALPHA SET ----- 

          ------------
          EIGENVECTORS
          ------------

                      1          2          3          4          5
                  -92.1961   -20.6388   -20.6388    -9.1795    -6.8615
                     A          A          A          A          A   
    1  S  1  S    0.996275   0.000000   0.000022  -0.281928  -0.000000
    2  S  1  S    0.014196   0.000000  -0.000087   1.031094  -0.000000
    3  S  1  X    0.000000   0.000000  -0.000000  -0.000000  -0.000000
    4  S  1  Y    0.000000   0.000030  -0.000000  -0.000000   0.993106
    5  S  1  Z   -0.000102   0.000000   0.000032  -0.007783  -0.000000
    6  S  1  S   -0.019813   0.000000   0.000845   0.019087  -0.000000
    7  S  1  X    0.000000   0.000000  -0.000000  -0.000000  -0.000000
    8  S  1  Y    0.000000  -0.000413  -0.000000  -0.000000   0.023605
    9  S  1  Z    0.000119   0.000000  -0.000294  -0.002252  -0.000000
   10  S  1  S    0.002089   0.000000  -0.000358  -0.003533  -0.000000
   11  S  1  X    0.000000   0.000000  -0.000000  -0.000000  -0.000000
   12  S  1  Y    0.000000   0.000342  -0.000000  -0.000000  -0.003391
   13  S  1  Z    0.000082   0.000000   0.000147   0.000058  -0.000000
   14  S  1 XX    0.006925   0.000000  -0.000171  -0.000070  -0.000000
   15  S  1 YY    0.006864   0.000000  -0.000167   0.001455  -0.000000
   16  S  1 ZZ    0.006881   0.000000  -0.000173   0.000198  -0.000000
   17  S  1 XY    0.000000   0.000000  -0.000000  -0.000000  -0.000000
   18  S  1 XZ    0.000000   0.000000  -0.000000  -0.000000  -0.000000
   19  S  1 YZ    0.000000   0.000042  -0.000000  -0.000000  -0.002204
   20  O  2  S    0.000022  -0.703388   0.703395  -0.000171  -0.000486
   21  O  2  S    0.000035  -0.014688   0.014722   0.000570   0.000660
   22  O  2  X    0.000000   0.000000  -0.000000  -0.000000  -0.000000
   23  O  2  Y    0.000073   0.000821  -0.000805  -0.000410  -0.000734
   24  O  2  Z   -0.000038  -0.000402   0.000423   0.000251   0.000516
   25  O  2  S    0.000124  -0.002813   0.002694  -0.001665  -0.002209
   26  O  2  X    0.000000   0.000000  -0.000000  -0.000000  -0.000000
   27  O  2  Y   -0.000242  -0.000280   0.000297   0.001495   0.001969
   28  O  2  Z    0.000110   0.000122  -0.000139  -0.000815  -0.001354
   29  O  2 XX    0.000059   0.002843  -0.002824   0.000268  -0.000034
   30  O  2 YY   -0.000048   0.002773  -0.002801  -0.000002   0.000381
   31  O  2 ZZ    0.000013   0.002724  -0.002677   0.000153   0.000031
   32  O  2 XY    0.000000   0.000000  -0.000000  -0.000000  -0.000000
   33  O  2 XZ    0.000000   0.000000  -0.000000  -0.000000  -0.000000
   34  O  2 YZ    0.000080  -0.000040   0.000015   0.000148  -0.000197
   35  O  3  S    0.000022   0.703388   0.703395  -0.000171   0.000486
   36  O  3  S    0.000035   0.014688   0.014722   0.000570  -0.000660
   37  O  3  X    0.000000   0.000000  -0.000000  -0.000000  -0.000000
   38  O  3  Y   -0.000073   0.000821   0.000805   0.000410  -0.000734
   39  O  3  Z   -0.000038   0.000402   0.000423   0.000251  -0.000516
   40  O  3  S    0.000124   0.002813   0.002694  -0.001665   0.002209
   41  O  3  X    0.000000   0.000000  -0.000000  -0.000000  -0.000000
   42  O  3  Y    0.000242  -0.000280  -0.000297  -0.001495   0.001969
   43  O  3  Z    0.000110  -0.000122  -0.000139  -0.000815   0.001354
   44  O  3 XX    0.000059  -0.002843  -0.002824   0.000268   0.000034
   45  O  3 YY   -0.000048  -0.002773  -0.002801  -0.000002  -0.000381
   46  O  3 ZZ    0.000013  -0.002724  -0.002677   0.000153  -0.000031
   47  O  3 XY    0.000000   0.000000  -0.000000  -0.000000  -0.000000
   48  O  3 XZ    0.000000   0.000000  -0.000000  -0.000000  -0.000000
   49  O  3 YZ   -0.000080  -0.000040  -0.000015  -0.000148  -0.000197

                      6          7          8          9         10
                   -6.8613    -6.8588    -1.4779    -1.3810    -0.8791
                     A          A          A          A          A   
    1  S  1  S    0.000000  -0.002536   0.043062  -0.000000   0.059501
    2  S  1  S    0.000000   0.009646  -0.198267  -0.000000  -0.266432
    3  S  1  X    0.993638  -0.000000   0.000000  -0.000000  -0.000000
    4  S  1  Y    0.000000  -0.000000   0.000000  -0.117807  -0.000000
    5  S  1  Z    0.000000   0.993862   0.056138  -0.000000  -0.038807
    6  S  1  S    0.000000  -0.006123   0.378333  -0.000000   0.631463
    7  S  1  X    0.021164  -0.000000   0.000000  -0.000000  -0.000000
    8  S  1  Y    0.000000  -0.000000   0.000000   0.251536  -0.000000
    9  S  1  Z    0.000000   0.020365  -0.112635  -0.000000   0.099512
   10  S  1  S    0.000000  -0.001265   0.011893  -0.000000   0.185100
   11  S  1  X   -0.004893  -0.000000   0.000000  -0.000000  -0.000000
   12  S  1  Y    0.000000  -0.000000   0.000000  -0.026464  -0.000000
   13  S  1  Z    0.000000  -0.003400   0.022088  -0.000000   0.044137
   14  S  1 XX    0.000000   0.002333  -0.033444  -0.000000   0.000912
   15  S  1 YY    0.000000   0.001953   0.044374  -0.000000  -0.008771
   16  S  1 ZZ    0.000000   0.000875  -0.007267  -0.000000  -0.003192
   17  S  1 XY    0.000000  -0.000000   0.000000  -0.000000  -0.000000
   18  S  1 XZ   -0.000612  -0.000000   0.000000  -0.000000  -0.000000
   19  S  1 YZ    0.000000  -0.000000   0.000000  -0.074989  -0.000000
   20  O  2  S    0.000000   0.000221  -0.128028  -0.149468   0.095956
   21  O  2  S    0.000000  -0.000458   0.290300   0.339053  -0.222229
   22  O  2  X    0.000083  -0.000000   0.000000  -0.000000  -0.000000
   23  O  2  Y    0.000000   0.000658  -0.086285  -0.065366  -0.158868
   24  O  2  Z    0.000000  -0.000145   0.046766   0.047738   0.120053
   25  O  2  S    0.000000   0.001905   0.250501   0.311780  -0.314139
   26  O  2  X   -0.000149  -0.000000   0.000000  -0.000000  -0.000000
   27  O  2  Y    0.000000  -0.001262  -0.038178  -0.024620  -0.076017
   28  O  2  Z    0.000000   0.000241   0.018289   0.019467   0.052246
   29  O  2 XX    0.000000  -0.000076   0.000825  -0.000058  -0.001889
   30  O  2 YY    0.000000  -0.000340   0.019190   0.010827   0.009728
   31  O  2 ZZ    0.000000  -0.000500   0.004725   0.004934   0.001303
   32  O  2 XY    0.000322  -0.000000   0.000000  -0.000000  -0.000000
   33  O  2 XZ   -0.000165  -0.000000   0.000000  -0.000000  -0.000000
   34  O  2 YZ    0.000000   0.000553  -0.011656  -0.008484  -0.010585
   35  O  3  S    0.000000   0.000221  -0.128028   0.149468   0.095956
   36  O  3  S    0.000000  -0.000458   0.290300  -0.339053  -0.222229
   37  O  3  X    0.000083  -0.000000   0.000000  -0.000000  -0.000000
   38  O  3  Y    0.000000  -0.000658   0.086285  -0.065366   0.158868
   39  O  3  Z    0.000000  -0.000145   0.046766  -0.047738   0.120053
   40  O  3  S    0.000000   0.001905   0.250501  -0.311780  -0.314139
   41  O  3  X   -0.000149  -0.000000   0.000000  -0.000000  -0.000000
   42  O  3  Y    0.000000   0.001262   0.038178  -0.024620   0.076017
   43  O  3  Z    0.000000   0.000241   0.018289  -0.019467   0.052246
   44  O  3 XX    0.000000  -0.000076   0.000825   0.000058  -0.001889
   45  O  3 YY    0.000000  -0.000340   0.019190  -0.010827   0.009728
   46  O  3 ZZ    0.000000  -0.000500   0.004725  -0.004934   0.001303
   47  O  3 XY   -0.000322  -0.000000   0.000000  -0.000000  -0.000000
   48  O  3 XZ   -0.000165  -0.000000   0.000000  -0.000000  -0.000000
   49  O  3 YZ    0.000000  -0.000553   0.011656  -0.008484   0.010585

                     11         12         13         14         15
                   -0.6872    -0.6782    -0.6470    -0.5308    -0.5014
                     A          A          A          A          A   
    1  S  1  S   -0.000000   0.006740   0.000000  -0.000000  -0.000000
    2  S  1  S   -0.000000  -0.032997   0.000000  -0.000000  -0.000000
    3  S  1  X   -0.000000   0.000000  -0.179057  -0.000000  -0.000000
    4  S  1  Y   -0.164974   0.000000   0.000000   0.013625  -0.000000
    5  S  1  Z   -0.000000  -0.173974   0.000000  -0.000000  -0.000000
    6  S  1  S   -0.000000   0.068448   0.000000  -0.000000  -0.000000
    7  S  1  X   -0.000000   0.000000   0.465517  -0.000000  -0.000000
    8  S  1  Y    0.431584   0.000000   0.000000  -0.042072  -0.000000
    9  S  1  Z   -0.000000   0.455491   0.000000  -0.000000  -0.000000
   10  S  1  S   -0.000000   0.108753   0.000000  -0.000000  -0.000000
   11  S  1  X   -0.000000   0.000000   0.151517  -0.000000  -0.000000
   12  S  1  Y    0.010387   0.000000   0.000000   0.107655  -0.000000
   13  S  1  Z   -0.000000   0.107334   0.000000  -0.000000  -0.000000
   14  S  1 XX   -0.000000   0.019919   0.000000  -0.000000  -0.000000
   15  S  1 YY   -0.000000   0.028398   0.000000  -0.000000  -0.000000
   16  S  1 ZZ   -0.000000  -0.053022   0.000000  -0.000000  -0.000000
   17  S  1 XY   -0.000000   0.000000   0.000000  -0.000000  -0.126416
   18  S  1 XZ   -0.000000   0.000000  -0.050957  -0.000000  -0.000000
   19  S  1 YZ   -0.059788   0.000000   0.000000   0.100955  -0.000000
   20  O  2  S    0.059249  -0.024150   0.000000  -0.003484  -0.000000
   21  O  2  S   -0.137063   0.052864   0.000000   0.018981  -0.000000
   22  O  2  X   -0.000000   0.000000   0.316672  -0.000000  -0.426487
   23  O  2  Y   -0.251075   0.280527   0.000000   0.333967  -0.000000
   24  O  2  Z    0.276530   0.190296   0.000000   0.310661  -0.000000
   25  O  2  S   -0.241322   0.109168   0.000000  -0.029637  -0.000000
   26  O  2  X   -0.000000   0.000000   0.222820  -0.000000  -0.362066
   27  O  2  Y   -0.128565   0.174991   0.000000   0.244980  -0.000000
   28  O  2  Z    0.162008   0.136753   0.000000   0.234654  -0.000000
   29  O  2 XX   -0.004988   0.001563   0.000000   0.004679  -0.000000
   30  O  2 YY    0.009711  -0.030466   0.000000  -0.022980  -0.000000
   31  O  2 ZZ    0.009091   0.015579   0.000000   0.029304  -0.000000
   32  O  2 XY   -0.000000   0.000000  -0.028393  -0.000000   0.031431
   33  O  2 XZ   -0.000000   0.000000   0.015979  -0.000000  -0.019643
   34  O  2 YZ   -0.019442  -0.003968   0.000000  -0.010880  -0.000000
   35  O  3  S   -0.059249  -0.024150   0.000000   0.003484  -0.000000
   36  O  3  S    0.137063   0.052864   0.000000  -0.018981  -0.000000
   37  O  3  X   -0.000000   0.000000   0.316672  -0.000000   0.426487
   38  O  3  Y   -0.251075  -0.280527   0.000000   0.333967  -0.000000
   39  O  3  Z   -0.276530   0.190296   0.000000  -0.310661  -0.000000
   40  O  3  S    0.241322   0.109168   0.000000   0.029637  -0.000000
   41  O  3  X   -0.000000   0.000000   0.222820  -0.000000   0.362066
   42  O  3  Y   -0.128565  -0.174991   0.000000   0.244980  -0.000000
   43  O  3  Z   -0.162008   0.136753   0.000000  -0.234654  -0.000000
   44  O  3 XX    0.004988   0.001563   0.000000  -0.004679  -0.000000
   45  O  3 YY   -0.009711  -0.030466   0.000000   0.022980  -0.000000
   46  O  3 ZZ   -0.009091   0.015579   0.000000  -0.029304  -0.000000
   47  O  3 XY   -0.000000   0.000000   0.028393  -0.000000   0.031431
   48  O  3 XZ   -0.000000   0.000000   0.015979  -0.000000   0.019643
   49  O  3 YZ   -0.019442   0.003968   0.000000  -0.010880  -0.000000

                     16         17         18         19         20
                   -0.4902     0.0012     0.2027     0.2081     0.3815
                     A          A          A          A          A   
    1  S  1  S    0.021361  -0.000000   0.016766   0.000000  -0.062862
    2  S  1  S   -0.103668  -0.000000  -0.111495   0.000000   0.088976
    3  S  1  X   -0.000000  -0.204470  -0.000000   0.000000   0.000000
    4  S  1  Y   -0.000000  -0.000000  -0.000000  -0.113791   0.000000
    5  S  1  Z   -0.136640  -0.000000   0.114773   0.000000   0.109294
    6  S  1  S    0.221460  -0.000000   0.072423   0.000000  -1.412044
    7  S  1  X   -0.000000   0.576361  -0.000000   0.000000   0.000000
    8  S  1  Y   -0.000000  -0.000000  -0.000000   0.337142   0.000000
    9  S  1  Z    0.375893  -0.000000  -0.350975   0.000000  -0.481932
   10  S  1  S    0.425612  -0.000000   1.290429   0.000000   1.879219
   11  S  1  X   -0.000000   0.505821  -0.000000   0.000000   0.000000
   12  S  1  Y   -0.000000  -0.000000  -0.000000   1.501014   0.000000
   13  S  1  Z    0.062914  -0.000000  -1.086160   0.000000   0.403390
   14  S  1 XX    0.054582  -0.000000   0.166113   0.000000  -0.071990
   15  S  1 YY   -0.140311  -0.000000  -0.095469   0.000000  -0.015313
   16  S  1 ZZ    0.075665  -0.000000  -0.047834   0.000000  -0.026870
   17  S  1 XY   -0.000000  -0.000000  -0.000000   0.000000   0.000000
   18  S  1 XZ   -0.000000   0.066709  -0.000000   0.000000   0.000000
   19  S  1 YZ   -0.000000  -0.000000  -0.000000   0.146469   0.000000
   20  O  2  S    0.002742  -0.000000   0.064496   0.060064   0.011855
   21  O  2  S    0.005716  -0.000000  -0.066968  -0.036589   0.016045
   22  O  2  X   -0.000000  -0.318499  -0.000000   0.000000   0.000000
   23  O  2  Y    0.070944  -0.000000   0.245319   0.031579  -0.095553
   24  O  2  Z   -0.380376  -0.000000   0.042075  -0.196847   0.065249
   25  O  2  S   -0.070294  -0.000000  -0.833486  -0.911910  -0.345529
   26  O  2  X   -0.000000  -0.368314  -0.000000   0.000000   0.000000
   27  O  2  Y    0.047098  -0.000000   0.485561   0.142811   0.034235
   28  O  2  Z   -0.308131  -0.000000   0.039732  -0.332744  -0.055220
   29  O  2 XX    0.009647  -0.000000   0.044824   0.038330   0.025455
   30  O  2 YY    0.005481  -0.000000   0.013245   0.030082   0.002152
   31  O  2 ZZ   -0.008016  -0.000000   0.023547   0.040906   0.004707
   32  O  2 XY   -0.000000   0.006611  -0.000000   0.000000   0.000000
   33  O  2 XZ   -0.000000  -0.001866  -0.000000   0.000000   0.000000
   34  O  2 YZ    0.018653  -0.000000   0.009841   0.006732   0.026537
   35  O  3  S    0.002742  -0.000000   0.064496  -0.060064   0.011855
   36  O  3  S    0.005716  -0.000000  -0.066968   0.036589   0.016045
   37  O  3  X   -0.000000  -0.318499  -0.000000   0.000000   0.000000
   38  O  3  Y   -0.070944  -0.000000  -0.245319   0.031579   0.095553
   39  O  3  Z   -0.380376  -0.000000   0.042075   0.196847   0.065249
   40  O  3  S   -0.070294  -0.000000  -0.833486   0.911910  -0.345529
   41  O  3  X   -0.000000  -0.368314  -0.000000   0.000000   0.000000
   42  O  3  Y   -0.047098  -0.000000  -0.485561   0.142811  -0.034235
   43  O  3  Z   -0.308131  -0.000000   0.039732   0.332744  -0.055220
   44  O  3 XX    0.009647  -0.000000   0.044824  -0.038330   0.025455
   45  O  3 YY    0.005481  -0.000000   0.013245  -0.030082   0.002152
   46  O  3 ZZ   -0.008016  -0.000000   0.023547  -0.040906   0.004707
   47  O  3 XY   -0.000000  -0.006611  -0.000000   0.000000   0.000000
   48  O  3 XZ   -0.000000  -0.001866  -0.000000   0.000000   0.000000
   49  O  3 YZ   -0.018653  -0.000000  -0.009841   0.006732  -0.026537

                     21         22         23         24         25
                    0.4402     0.5096     0.5977     0.8997     0.9001
                     A          A          A          A          A   
    1  S  1  S    0.000000   0.035018  -0.000000  -0.000526   0.000000
    2  S  1  S    0.000000  -0.064206  -0.000000  -0.002779   0.000000
    3  S  1  X    0.275434   0.000000  -0.000000  -0.000000  -0.027773
    4  S  1  Y    0.000000   0.000000   0.311377  -0.000000   0.000000
    5  S  1  Z    0.000000   0.267212  -0.000000  -0.026155   0.000000
    6  S  1  S    0.000000   0.753962  -0.000000  -0.024753   0.000000
    7  S  1  X   -1.134422   0.000000  -0.000000  -0.000000   0.131513
    8  S  1  Y    0.000000   0.000000  -1.237130  -0.000000   0.000000
    9  S  1  Z    0.000000  -1.065963  -0.000000   0.143588   0.000000
   10  S  1  S    0.000000  -0.903329  -0.000000  -0.052775   0.000000
   11  S  1  X    1.329789   0.000000  -0.000000  -0.000000  -0.135478
   12  S  1  Y    0.000000   0.000000   1.283517  -0.000000   0.000000
   13  S  1  Z    0.000000   1.230054  -0.000000  -0.106589   0.000000
   14  S  1 XX    0.000000   0.113960  -0.000000  -0.612777   0.000000
   15  S  1 YY    0.000000  -0.210028  -0.000000  -0.236005   0.000000
   16  S  1 ZZ    0.000000   0.100466  -0.000000   0.848379   0.000000
   17  S  1 XY    0.000000   0.000000  -0.000000  -0.000000   0.000000
   18  S  1 XZ    0.074386   0.000000  -0.000000  -0.000000   0.927770
   19  S  1 YZ    0.000000   0.000000  -0.301734  -0.000000   0.000000
   20  O  2  S    0.000000  -0.003165  -0.002934  -0.003980   0.000000
   21  O  2  S    0.000000  -0.105180   0.107248  -0.107215   0.000000
   22  O  2  X    0.002659   0.000000  -0.000000  -0.000000   0.225874
   23  O  2  Y    0.000000   0.223416  -0.203190   0.136632   0.000000
   24  O  2  Z    0.000000  -0.078982   0.151081   0.254905   0.000000
   25  O  2  S    0.000000   0.479018  -0.416887   0.202219   0.000000
   26  O  2  X   -0.118002   0.000000  -0.000000  -0.000000  -0.050808
   27  O  2  Y    0.000000   0.024410  -0.132453  -0.066323   0.000000
   28  O  2  Z    0.000000  -0.101260   0.041907  -0.084951   0.000000
   29  O  2 XX    0.000000  -0.051573   0.049690  -0.083602   0.000000
   30  O  2 YY    0.000000   0.031818   0.015798   0.031096   0.000000
   31  O  2 ZZ    0.000000  -0.069266  -0.006529  -0.072703   0.000000
   32  O  2 XY    0.036899   0.000000  -0.000000  -0.000000   0.088053
   33  O  2 XZ   -0.017371   0.000000  -0.000000  -0.000000   0.017120
   34  O  2 YZ    0.000000  -0.007706   0.056327   0.073276   0.000000
   35  O  3  S    0.000000  -0.003165   0.002934  -0.003980   0.000000
   36  O  3  S    0.000000  -0.105180  -0.107248  -0.107215   0.000000
   37  O  3  X    0.002659   0.000000  -0.000000  -0.000000   0.225874
   38  O  3  Y    0.000000  -0.223416  -0.203190  -0.136632   0.000000
   39  O  3  Z    0.000000  -0.078982  -0.151081   0.254905   0.000000
   40  O  3  S    0.000000   0.479018   0.416887   0.202219   0.000000
   41  O  3  X   -0.118002   0.000000  -0.000000  -0.000000  -0.050808
   42  O  3  Y    0.000000  -0.024410  -0.132453   0.066323   0.000000
   43  O  3  Z    0.000000  -0.101260  -0.041907  -0.084951   0.000000
   44  O  3 XX    0.000000  -0.051573  -0.049690  -0.083602   0.000000
   45  O  3 YY    0.000000   0.031818  -0.015798   0.031096   0.000000
   46  O  3 ZZ    0.000000  -0.069266   0.006529  -0.072703   0.000000
   47  O  3 XY   -0.036899   0.000000  -0.000000  -0.000000  -0.088053
   48  O  3 XZ   -0.017371   0.000000  -0.000000  -0.000000   0.017120
   49  O  3 YZ    0.000000   0.007706   0.056327  -0.073276   0.000000

                     26         27         28         29         30
                    0.9092     1.0010     1.0212     1.2043     1.2086
                     A          A          A          A          A   
    1  S  1  S    0.000000   0.015444  -0.000000  -0.000000  -0.006182
    2  S  1  S    0.000000   0.008924  -0.000000  -0.000000  -0.012312
    3  S  1  X    0.000000  -0.000000  -0.000000  -0.000000   0.000000
    4  S  1  Y    0.000000  -0.000000  -0.114350  -0.000000   0.000000
    5  S  1  Z    0.000000   0.068051  -0.000000  -0.000000  -0.031098
    6  S  1  S    0.000000   0.377731  -0.000000  -0.000000  -0.198720
    7  S  1  X    0.000000  -0.000000  -0.000000  -0.000000   0.000000
    8  S  1  Y    0.000000  -0.000000   0.665785  -0.000000   0.000000
    9  S  1  Z    0.000000  -0.398123  -0.000000  -0.000000   0.190888
   10  S  1  S    0.000000   0.193865  -0.000000  -0.000000  -0.338804
   11  S  1  X    0.000000  -0.000000  -0.000000  -0.000000   0.000000
   12  S  1  Y    0.000000  -0.000000  -0.098400  -0.000000   0.000000
   13  S  1  Z    0.000000   0.018581  -0.000000  -0.000000  -0.326336
   14  S  1 XX    0.000000  -0.403393  -0.000000  -0.000000  -0.017423
   15  S  1 YY    0.000000   0.654048  -0.000000  -0.000000  -0.405823
   16  S  1 ZZ    0.000000   0.002721  -0.000000  -0.000000   0.347682
   17  S  1 XY    0.874166  -0.000000  -0.000000   0.331434   0.000000
   18  S  1 XZ    0.000000  -0.000000  -0.000000  -0.000000   0.000000
   19  S  1 YZ    0.000000  -0.000000  -0.536559  -0.000000   0.000000
   20  O  2  S    0.000000   0.020230   0.018543  -0.000000  -0.020308
   21  O  2  S    0.000000  -0.434208  -0.476293  -0.000000  -0.214365
   22  O  2  X   -0.296450  -0.000000  -0.000000   0.634133   0.000000
   23  O  2  Y    0.000000  -0.318313  -0.200733  -0.000000  -0.229708
   24  O  2  Z    0.000000  -0.006147   0.247548  -0.000000  -0.524138
   25  O  2  S    0.000000   0.399755   0.506441  -0.000000   0.549619
   26  O  2  X    0.029352  -0.000000  -0.000000  -0.781550   0.000000
   27  O  2  Y    0.000000   0.721225   0.682101  -0.000000   0.082306
   28  O  2  Z    0.000000  -0.298734  -0.471958  -0.000000   0.856530
   29  O  2 XX    0.000000  -0.169116  -0.158670  -0.000000  -0.053831
   30  O  2 YY    0.000000  -0.174949  -0.133094  -0.000000  -0.029739
   31  O  2 ZZ    0.000000  -0.108759  -0.195224  -0.000000  -0.130375
   32  O  2 XY   -0.090635  -0.000000  -0.000000  -0.075924   0.000000
   33  O  2 XZ    0.089965  -0.000000  -0.000000   0.048867   0.000000
   34  O  2 YZ    0.000000  -0.015080  -0.006648  -0.000000   0.074818
   35  O  3  S    0.000000   0.020230  -0.018543  -0.000000  -0.020308
   36  O  3  S    0.000000  -0.434208   0.476293  -0.000000  -0.214365
   37  O  3  X    0.296450  -0.000000  -0.000000  -0.634133   0.000000
   38  O  3  Y    0.000000   0.318313  -0.200733  -0.000000   0.229708
   39  O  3  Z    0.000000  -0.006147  -0.247548  -0.000000  -0.524138
   40  O  3  S    0.000000   0.399755  -0.506441  -0.000000   0.549619
   41  O  3  X   -0.029352  -0.000000  -0.000000   0.781550   0.000000
   42  O  3  Y    0.000000  -0.721225   0.682101  -0.000000  -0.082306
   43  O  3  Z    0.000000  -0.298734   0.471958  -0.000000   0.856530
   44  O  3 XX    0.000000  -0.169116   0.158670  -0.000000  -0.053831
   45  O  3 YY    0.000000  -0.174949   0.133094  -0.000000  -0.029739
   46  O  3 ZZ    0.000000  -0.108759   0.195224  -0.000000  -0.130375
   47  O  3 XY   -0.090635  -0.000000  -0.000000  -0.075924   0.000000
   48  O  3 XZ   -0.089965  -0.000000  -0.000000  -0.048867   0.000000
   49  O  3 YZ    0.000000   0.015080  -0.006648  -0.000000  -0.074818

                     31         32         33         34         35
                    1.2610     1.2806     1.3336     1.4106     1.5161
                     A          A          A          A          A   
    1  S  1  S    0.000000   0.000000  -0.006811  -0.000000  -0.000000
    2  S  1  S    0.000000   0.000000   0.117273  -0.000000  -0.000000
    3  S  1  X    0.000000  -0.013712  -0.000000  -0.000000  -0.000000
    4  S  1  Y   -0.053882   0.000000  -0.000000  -0.088335   0.029688
    5  S  1  Z    0.000000   0.000000  -0.048529  -0.000000  -0.000000
    6  S  1  S    0.000000   0.000000   0.083553  -0.000000  -0.000000
    7  S  1  X    0.000000   0.030950  -0.000000  -0.000000  -0.000000
    8  S  1  Y    0.329582   0.000000  -0.000000   0.503018   0.278089
    9  S  1  Z    0.000000   0.000000   0.064234  -0.000000  -0.000000
   10  S  1  S    0.000000   0.000000  -0.162050  -0.000000  -0.000000
   11  S  1  X    0.000000  -0.550653  -0.000000  -0.000000  -0.000000
   12  S  1  Y    0.028279   0.000000  -0.000000   1.263896   0.658064
   13  S  1  Z    0.000000   0.000000   0.049609  -0.000000  -0.000000
   14  S  1 XX    0.000000   0.000000   0.667821  -0.000000  -0.000000
   15  S  1 YY    0.000000   0.000000  -0.539772  -0.000000  -0.000000
   16  S  1 ZZ    0.000000   0.000000   0.195280  -0.000000  -0.000000
   17  S  1 XY    0.000000   0.000000  -0.000000  -0.000000  -0.000000
   18  S  1 XZ    0.000000   0.276051  -0.000000  -0.000000  -0.000000
   19  S  1 YZ   -0.397933   0.000000  -0.000000  -0.669016   0.370124
   20  O  2  S    0.027105   0.000000  -0.016787   0.070804   0.019485
   21  O  2  S    0.284985   0.000000   0.133737   0.703211   0.813904
   22  O  2  X    0.000000  -0.656336  -0.000000  -0.000000  -0.000000
   23  O  2  Y   -0.259617   0.000000  -0.494881   0.402051  -0.476135
   24  O  2  Z   -0.518774   0.000000   0.357025   0.149205   0.306101
   25  O  2  S   -0.753723   0.000000   0.004450  -2.205438  -1.656015
   26  O  2  X    0.000000   0.899965  -0.000000  -0.000000  -0.000000
   27  O  2  Y    0.643417   0.000000   0.424789   0.071802   0.637743
   28  O  2  Z    0.474207   0.000000  -0.254572  -0.597371  -0.547017
   29  O  2 XX    0.053449   0.000000   0.071949   0.209899   0.095434
   30  O  2 YY    0.207818   0.000000   0.066279   0.336565   0.189335
   31  O  2 ZZ    0.028398   0.000000  -0.094048   0.185723   0.331760
   32  O  2 XY    0.000000   0.078145  -0.000000  -0.000000  -0.000000
   33  O  2 XZ    0.000000  -0.029780  -0.000000  -0.000000  -0.000000
   34  O  2 YZ    0.005479   0.000000   0.019157  -0.077149  -0.063455
   35  O  3  S   -0.027105   0.000000  -0.016787  -0.070804  -0.019485
   36  O  3  S   -0.284985   0.000000   0.133737  -0.703211  -0.813904
   37  O  3  X    0.000000  -0.656336  -0.000000  -0.000000  -0.000000
   38  O  3  Y   -0.259617   0.000000   0.494881   0.402051  -0.476135
   39  O  3  Z    0.518774   0.000000   0.357025  -0.149205  -0.306101
   40  O  3  S    0.753723   0.000000   0.004450   2.205438   1.656015
   41  O  3  X    0.000000   0.899965  -0.000000  -0.000000  -0.000000
   42  O  3  Y    0.643417   0.000000  -0.424789   0.071802   0.637743
   43  O  3  Z   -0.474207   0.000000  -0.254572   0.597371   0.547017
   44  O  3 XX   -0.053449   0.000000   0.071949  -0.209899  -0.095434
   45  O  3 YY   -0.207818   0.000000   0.066279  -0.336565  -0.189335
   46  O  3 ZZ   -0.028398   0.000000  -0.094048  -0.185723  -0.331760
   47  O  3 XY    0.000000  -0.078145  -0.000000  -0.000000  -0.000000
   48  O  3 XZ    0.000000  -0.029780  -0.000000  -0.000000  -0.000000
   49  O  3 YZ    0.005479   0.000000  -0.019157  -0.077149  -0.063455

                     36         37         38         39         40
                    1.5250     2.0375     2.0469     2.0524     2.0701
                     A          A          A          A          A   
    1  S  1  S   -0.005221   0.000000  -0.000000  -0.000000   0.000789
    2  S  1  S    0.001704   0.000000  -0.000000  -0.000000  -0.011408
    3  S  1  X   -0.000000   0.000000   0.023627  -0.000000  -0.000000
    4  S  1  Y   -0.000000   0.000000  -0.000000  -0.010024  -0.000000
    5  S  1  Z   -0.040418   0.000000  -0.000000  -0.000000  -0.000795
    6  S  1  S   -0.144972   0.000000  -0.000000  -0.000000   0.010599
    7  S  1  X   -0.000000   0.000000  -0.097467  -0.000000  -0.000000
    8  S  1  Y   -0.000000   0.000000  -0.000000  -0.000669  -0.000000
    9  S  1  Z    0.394937   0.000000  -0.000000  -0.000000   0.029563
   10  S  1  S   -2.369400   0.000000  -0.000000  -0.000000  -0.124363
   11  S  1  X   -0.000000   0.000000  -0.008944  -0.000000  -0.000000
   12  S  1  Y   -0.000000   0.000000  -0.000000  -0.004463  -0.000000
   13  S  1  Z    1.159047   0.000000  -0.000000  -0.000000   0.063386
   14  S  1 XX    0.389142   0.000000  -0.000000  -0.000000  -0.186925
   15  S  1 YY   -0.327869   0.000000  -0.000000  -0.000000   0.040239
   16  S  1 ZZ   -0.164552   0.000000  -0.000000  -0.000000   0.076626
   17  S  1 XY   -0.000000  -0.032226  -0.000000  -0.000000  -0.000000
   18  S  1 XZ   -0.000000   0.000000  -0.057484  -0.000000  -0.000000
   19  S  1 YZ   -0.000000   0.000000  -0.000000  -0.017614  -0.000000
   20  O  2  S   -0.085851   0.000000  -0.000000   0.006431   0.004826
   21  O  2  S   -1.140897   0.000000  -0.000000  -0.092170  -0.115718
   22  O  2  X   -0.000000  -0.024598  -0.034411  -0.000000  -0.000000
   23  O  2  Y    0.181202   0.000000  -0.000000   0.075805   0.062848
   24  O  2  Z    0.106969   0.000000  -0.000000   0.015754  -0.012177
   25  O  2  S    3.198468   0.000000  -0.000000   0.091318   0.171275
   26  O  2  X   -0.000000   0.029202   0.043307  -0.000000  -0.000000
   27  O  2  Y   -1.022997   0.000000  -0.000000  -0.100495  -0.096136
   28  O  2  Z    0.090822   0.000000  -0.000000  -0.015161   0.014486
   29  O  2 XX   -0.308093   0.000000  -0.000000  -0.588937   0.608630
   30  O  2 YY   -0.475026   0.000000  -0.000000   0.279439  -0.155655
   31  O  2 ZZ   -0.276250   0.000000  -0.000000   0.321407  -0.457874
   32  O  2 XY   -0.000000  -0.473509   0.170935  -0.000000  -0.000000
   33  O  2 XZ   -0.000000  -0.525804   0.687021  -0.000000  -0.000000
   34  O  2 YZ    0.093051   0.000000  -0.000000   0.379027  -0.301000
   35  O  3  S   -0.085851   0.000000  -0.000000  -0.006431   0.004826
   36  O  3  S   -1.140897   0.000000  -0.000000   0.092170  -0.115718
   37  O  3  X   -0.000000   0.024598  -0.034411  -0.000000  -0.000000
   38  O  3  Y   -0.181202   0.000000  -0.000000   0.075805  -0.062848
   39  O  3  Z    0.106969   0.000000  -0.000000  -0.015754  -0.012177
   40  O  3  S    3.198468   0.000000  -0.000000  -0.091318   0.171275
   41  O  3  X   -0.000000  -0.029202   0.043307  -0.000000  -0.000000
   42  O  3  Y    1.022997   0.000000  -0.000000  -0.100495   0.096136
   43  O  3  Z    0.090822   0.000000  -0.000000   0.015161   0.014486
   44  O  3 XX   -0.308093   0.000000  -0.000000   0.588937   0.608630
   45  O  3 YY   -0.475026   0.000000  -0.000000  -0.279439  -0.155655
   46  O  3 ZZ   -0.276250   0.000000  -0.000000  -0.321407  -0.457874
   47  O  3 XY   -0.000000  -0.473509  -0.170935  -0.000000  -0.000000
   48  O  3 XZ   -0.000000   0.525804   0.687021  -0.000000  -0.000000
   49  O  3 YZ   -0.093051   0.000000  -0.000000   0.379027   0.301000

                     41         42         43         44         45
                    2.1636     2.2768     2.3369     2.5000     2.9672
                     A          A          A          A          A   
    1  S  1  S    0.000000  -0.000000  -0.000000  -0.001138  -0.052155
    2  S  1  S    0.000000  -0.000000  -0.000000   0.008802   0.072408
    3  S  1  X    0.000000  -0.082454  -0.000000  -0.000000   0.000000
    4  S  1  Y    0.039455  -0.000000  -0.000000  -0.000000   0.000000
    5  S  1  Z    0.000000  -0.000000  -0.000000   0.076527  -0.139199
    6  S  1  S    0.000000  -0.000000  -0.000000  -0.035029  -1.506441
    7  S  1  X    0.000000   0.337618  -0.000000  -0.000000   0.000000
    8  S  1  Y   -0.238942  -0.000000  -0.000000  -0.000000   0.000000
    9  S  1  Z    0.000000  -0.000000  -0.000000  -0.351058   1.005936
   10  S  1  S    0.000000  -0.000000  -0.000000   0.345840  -0.965453
   11  S  1  X    0.000000   0.107069  -0.000000  -0.000000   0.000000
   12  S  1  Y   -0.119782  -0.000000  -0.000000  -0.000000   0.000000
   13  S  1  Z    0.000000  -0.000000  -0.000000  -0.281228   0.265852
   14  S  1 XX    0.000000  -0.000000  -0.000000  -0.009930   0.551662
   15  S  1 YY    0.000000  -0.000000  -0.000000  -0.495017  -0.674549
   16  S  1 ZZ    0.000000  -0.000000  -0.000000   0.592399   0.112093
   17  S  1 XY    0.000000  -0.000000   0.607604  -0.000000   0.000000
   18  S  1 XZ    0.000000  -0.394774  -0.000000  -0.000000   0.000000
   19  S  1 YZ   -0.383827  -0.000000  -0.000000  -0.000000   0.000000
   20  O  2  S   -0.000856  -0.000000  -0.000000   0.004255  -0.044166
   21  O  2  S   -0.151900  -0.000000  -0.000000   0.185414  -0.616485
   22  O  2  X    0.000000   0.099326   0.065999  -0.000000   0.000000
   23  O  2  Y    0.044312  -0.000000  -0.000000  -0.095518   0.055235
   24  O  2  Z   -0.142278  -0.000000  -0.000000  -0.029511  -0.021688
   25  O  2  S    0.283297  -0.000000  -0.000000  -0.438383   1.767026
   26  O  2  X    0.000000  -0.223291  -0.177490  -0.000000   0.000000
   27  O  2  Y   -0.023723  -0.000000  -0.000000   0.264422  -0.956797
   28  O  2  Z    0.218724  -0.000000  -0.000000   0.173749   0.486172
   29  O  2 XX   -0.178288  -0.000000  -0.000000   0.038007  -0.543324
   30  O  2 YY   -0.507955  -0.000000  -0.000000  -0.543105   0.497171
   31  O  2 ZZ    0.587418  -0.000000  -0.000000   0.598042  -0.169618
   32  O  2 XY    0.000000   0.715771   0.556129  -0.000000   0.000000
   33  O  2 XZ    0.000000  -0.194404  -0.489144  -0.000000   0.000000
   34  O  2 YZ   -0.297342  -0.000000  -0.000000  -0.385747  -0.700565
   35  O  3  S    0.000856  -0.000000  -0.000000   0.004255  -0.044166
   36  O  3  S    0.151900  -0.000000  -0.000000   0.185414  -0.616485
   37  O  3  X    0.000000   0.099326  -0.065999  -0.000000   0.000000
   38  O  3  Y    0.044312  -0.000000  -0.000000   0.095518  -0.055235
   39  O  3  Z    0.142278  -0.000000  -0.000000  -0.029511  -0.021688
   40  O  3  S   -0.283297  -0.000000  -0.000000  -0.438383   1.767026
   41  O  3  X    0.000000  -0.223291   0.177490  -0.000000   0.000000
   42  O  3  Y   -0.023723  -0.000000  -0.000000  -0.264422   0.956797
   43  O  3  Z   -0.218724  -0.000000  -0.000000   0.173749   0.486172
   44  O  3 XX    0.178288  -0.000000  -0.000000   0.038007  -0.543324
   45  O  3 YY    0.507955  -0.000000  -0.000000  -0.543105   0.497171
   46  O  3 ZZ   -0.587418  -0.000000  -0.000000   0.598042  -0.169618
   47  O  3 XY    0.000000  -0.715771   0.556129  -0.000000   0.000000
   48  O  3 XZ    0.000000  -0.194404   0.489144  -0.000000   0.000000
   49  O  3 YZ   -0.297342  -0.000000  -0.000000   0.385747   0.700565

                     46         47         48         49
                    3.0983     3.9646     3.9899     4.2816
                     A          A          A          A   
    1  S  1  S    0.000000  -0.018509  -0.000000   0.159091
    2  S  1  S    0.000000   0.042044  -0.000000  -0.784259
    3  S  1  X    0.000000   0.000000  -0.000000  -0.000000
    4  S  1  Y   -0.258080   0.000000   0.031979  -0.000000
    5  S  1  Z    0.000000   0.001193  -0.000000  -0.052977
    6  S  1  S    0.000000  -0.919121  -0.000000   6.197317
    7  S  1  X    0.000000   0.000000  -0.000000  -0.000000
    8  S  1  Y    1.823232   0.000000   0.035956  -0.000000
    9  S  1  Z    0.000000   0.111693  -0.000000   0.374654
   10  S  1  S    0.000000  -1.286306  -0.000000  -0.745799
   11  S  1  X    0.000000   0.000000  -0.000000  -0.000000
   12  S  1  Y    0.287664   0.000000   0.743327  -0.000000
   13  S  1  Z    0.000000   0.612833  -0.000000   0.128351
   14  S  1 XX    0.000000   0.381735  -0.000000  -2.625085
   15  S  1 YY    0.000000   0.423299  -0.000000  -3.098599
   16  S  1 ZZ    0.000000   0.288633  -0.000000  -2.798147
   17  S  1 XY    0.000000   0.000000  -0.000000  -0.000000
   18  S  1 XZ    0.000000   0.000000  -0.000000  -0.000000
   19  S  1 YZ   -0.869776   0.000000   0.115473  -0.000000
   20  O  2  S    0.049762  -0.342818   0.339191  -0.067886
   21  O  2  S    0.511415   0.101137  -0.141300  -0.152233
   22  O  2  X    0.000000   0.000000  -0.000000  -0.000000
   23  O  2  Y   -0.001497   0.114410  -0.109737  -0.069089
   24  O  2  Z    0.002703  -0.032277   0.085615   0.045466
   25  O  2  S   -1.632239   3.008022  -2.763161   0.836357
   26  O  2  X    0.000000   0.000000  -0.000000  -0.000000
   27  O  2  Y    0.929478  -0.471968   0.261989  -0.362236
   28  O  2  Z   -0.572788   0.100011  -0.262837   0.177978
   29  O  2 XX    0.543384  -1.135891   1.182043  -0.290438
   30  O  2 YY   -0.556002  -1.060211   1.105286   0.065355
   31  O  2 ZZ    0.223353  -1.195988   1.106358  -0.164823
   32  O  2 XY    0.000000   0.000000  -0.000000  -0.000000
   33  O  2 XZ    0.000000   0.000000  -0.000000  -0.000000
   34  O  2 YZ    0.723924  -0.044835   0.031142  -0.240788
   35  O  3  S   -0.049762  -0.342818  -0.339191  -0.067886
   36  O  3  S   -0.511415   0.101137   0.141300  -0.152233
   37  O  3  X    0.000000   0.000000  -0.000000  -0.000000
   38  O  3  Y   -0.001497  -0.114410  -0.109737   0.069089
   39  O  3  Z   -0.002703  -0.032277  -0.085615   0.045466
   40  O  3  S    1.632239   3.008022   2.763161   0.836357
   41  O  3  X    0.000000   0.000000  -0.000000  -0.000000
   42  O  3  Y    0.929478   0.471968   0.261989   0.362236
   43  O  3  Z    0.572788   0.100011   0.262837   0.177978
   44  O  3 XX   -0.543384  -1.135891  -1.182043  -0.290438
   45  O  3 YY    0.556002  -1.060211  -1.105286   0.065355
   46  O  3 ZZ   -0.223353  -1.195988  -1.106358  -0.164823
   47  O  3 XY    0.000000   0.000000  -0.000000  -0.000000
   48  O  3 XZ    0.000000   0.000000  -0.000000  -0.000000
   49  O  3 YZ    0.723924   0.044835   0.031142   0.240788

  ----- BETA SET ----- 

          ------------
          EIGENVECTORS
          ------------

                      1          2          3          4          5
                  -92.1961   -20.6388   -20.6388    -9.1795    -6.8615
                     A          A          A          A          A   
    1  S  1  S    0.996275  -0.000000   0.000022  -0.281928  -0.000000
    2  S  1  S    0.014196  -0.000000  -0.000087   1.031094  -0.000000
    3  S  1  X    0.000000  -0.000000  -0.000000  -0.000000  -0.000000
    4  S  1  Y    0.000000  -0.000030  -0.000000  -0.000000   0.993106
    5  S  1  Z   -0.000102  -0.000000   0.000032  -0.007783  -0.000000
    6  S  1  S   -0.019813  -0.000000   0.000845   0.019087  -0.000000
    7  S  1  X    0.000000  -0.000000  -0.000000  -0.000000  -0.000000
    8  S  1  Y    0.000000   0.000413  -0.000000  -0.000000   0.023605
    9  S  1  Z    0.000119  -0.000000  -0.000294  -0.002252  -0.000000
   10  S  1  S    0.002089  -0.000000  -0.000358  -0.003533  -0.000000
   11  S  1  X    0.000000  -0.000000  -0.000000  -0.000000  -0.000000
   12  S  1  Y    0.000000  -0.000342  -0.000000  -0.000000  -0.003391
   13  S  1  Z    0.000082  -0.000000   0.000147   0.000058  -0.000000
   14  S  1 XX    0.006925  -0.000000  -0.000171  -0.000070  -0.000000
   15  S  1 YY    0.006864  -0.000000  -0.000167   0.001455  -0.000000
   16  S  1 ZZ    0.006881  -0.000000  -0.000173   0.000198  -0.000000
   17  S  1 XY    0.000000  -0.000000  -0.000000  -0.000000  -0.000000
   18  S  1 XZ    0.000000  -0.000000  -0.000000  -0.000000  -0.000000
   19  S  1 YZ    0.000000  -0.000042  -0.000000  -0.000000  -0.002204
   20  O  2  S    0.000022   0.703388   0.703395  -0.000171  -0.000486
   21  O  2  S    0.000035   0.014688   0.014722   0.000570   0.000660
   22  O  2  X    0.000000  -0.000000  -0.000000  -0.000000  -0.000000
   23  O  2  Y    0.000073  -0.000821  -0.000805  -0.000410  -0.000734
   24  O  2  Z   -0.000038   0.000402   0.000423   0.000251   0.000516
   25  O  2  S    0.000124   0.002813   0.002694  -0.001665  -0.002209
   26  O  2  X    0.000000  -0.000000  -0.000000  -0.000000  -0.000000
   27  O  2  Y   -0.000242   0.000280   0.000297   0.001495   0.001969
   28  O  2  Z    0.000110  -0.000122  -0.000139  -0.000815  -0.001354
   29  O  2 XX    0.000059  -0.002843  -0.002824   0.000268  -0.000034
   30  O  2 YY   -0.000048  -0.002773  -0.002801  -0.000002   0.000381
   31  O  2 ZZ    0.000013  -0.002724  -0.002677   0.000153   0.000031
   32  O  2 XY    0.000000  -0.000000  -0.000000  -0.000000  -0.000000
   33  O  2 XZ    0.000000  -0.000000  -0.000000  -0.000000  -0.000000
   34  O  2 YZ    0.000080   0.000040   0.000015   0.000148  -0.000197
   35  O  3  S    0.000022  -0.703388   0.703395  -0.000171   0.000486
   36  O  3  S    0.000035  -0.014688   0.014722   0.000570  -0.000660
   37  O  3  X    0.000000  -0.000000  -0.000000  -0.000000  -0.000000
   38  O  3  Y   -0.000073  -0.000821   0.000805   0.000410  -0.000734
   39  O  3  Z   -0.000038  -0.000402   0.000423   0.000251  -0.000516
   40  O  3  S    0.000124  -0.002813   0.002694  -0.001665   0.002209
   41  O  3  X    0.000000  -0.000000  -0.000000  -0.000000  -0.000000
   42  O  3  Y    0.000242   0.000280  -0.000297  -0.001495   0.001969
   43  O  3  Z    0.000110   0.000122  -0.000139  -0.000815   0.001354
   44  O  3 XX    0.000059   0.002843  -0.002824   0.000268   0.000034
   45  O  3 YY   -0.000048   0.002773  -0.002801  -0.000002  -0.000381
   46  O  3 ZZ    0.000013   0.002724  -0.002677   0.000153  -0.000031
   47  O  3 XY    0.000000  -0.000000  -0.000000  -0.000000  -0.000000
   48  O  3 XZ    0.000000  -0.000000  -0.000000  -0.000000  -0.000000
   49  O  3 YZ   -0.000080   0.000040  -0.000015  -0.000148  -0.000197

                      6          7          8          9         10
                   -6.8613    -6.8588    -1.4779    -1.3810    -0.8791
                     A          A          A          A          A   
    1  S  1  S    0.000000  -0.002536   0.043062   0.000000   0.059501
    2  S  1  S    0.000000   0.009646  -0.198267   0.000000  -0.266432
    3  S  1  X    0.993638   0.000000   0.000000   0.000000  -0.000000
    4  S  1  Y    0.000000   0.000000   0.000000  -0.117807  -0.000000
    5  S  1  Z    0.000000   0.993862   0.056138   0.000000  -0.038807
    6  S  1  S    0.000000  -0.006123   0.378333   0.000000   0.631463
    7  S  1  X    0.021164   0.000000   0.000000   0.000000  -0.000000
    8  S  1  Y    0.000000   0.000000   0.000000   0.251536  -0.000000
    9  S  1  Z    0.000000   0.020365  -0.112635   0.000000   0.099512
   10  S  1  S    0.000000  -0.001265   0.011893   0.000000   0.185100
   11  S  1  X   -0.004893   0.000000   0.000000   0.000000  -0.000000
   12  S  1  Y    0.000000   0.000000   0.000000  -0.026464  -0.000000
   13  S  1  Z    0.000000  -0.003400   0.022088   0.000000   0.044137
   14  S  1 XX    0.000000   0.002333  -0.033444   0.000000   0.000912
   15  S  1 YY    0.000000   0.001953   0.044374   0.000000  -0.008771
   16  S  1 ZZ    0.000000   0.000875  -0.007267   0.000000  -0.003192
   17  S  1 XY    0.000000   0.000000   0.000000   0.000000  -0.000000
   18  S  1 XZ   -0.000612   0.000000   0.000000   0.000000  -0.000000
   19  S  1 YZ    0.000000   0.000000   0.000000  -0.074989  -0.000000
   20  O  2  S    0.000000   0.000221  -0.128028  -0.149468   0.095956
   21  O  2  S    0.000000  -0.000458   0.290300   0.339053  -0.222229
   22  O  2  X    0.000083   0.000000   0.000000   0.000000  -0.000000
   23  O  2  Y    0.000000   0.000658  -0.086285  -0.065366  -0.158868
   24  O  2  Z    0.000000  -0.000145   0.046766   0.047738   0.120053
   25  O  2  S    0.000000   0.001905   0.250501   0.311780  -0.314139
   26  O  2  X   -0.000149   0.000000   0.000000   0.000000  -0.000000
   27  O  2  Y    0.000000  -0.001262  -0.038178  -0.024620  -0.076017
   28  O  2  Z    0.000000   0.000241   0.018289   0.019467   0.052246
   29  O  2 XX    0.000000  -0.000076   0.000825  -0.000058  -0.001889
   30  O  2 YY    0.000000  -0.000340   0.019190   0.010827   0.009728
   31  O  2 ZZ    0.000000  -0.000500   0.004725   0.004934   0.001303
   32  O  2 XY    0.000322   0.000000   0.000000   0.000000  -0.000000
   33  O  2 XZ   -0.000165   0.000000   0.000000   0.000000  -0.000000
   34  O  2 YZ    0.000000   0.000553  -0.011656  -0.008484  -0.010585
   35  O  3  S    0.000000   0.000221  -0.128028   0.149468   0.095956
   36  O  3  S    0.000000  -0.000458   0.290300  -0.339053  -0.222229
   37  O  3  X    0.000083   0.000000   0.000000   0.000000  -0.000000
   38  O  3  Y    0.000000  -0.000658   0.086285  -0.065366   0.158868
   39  O  3  Z    0.000000  -0.000145   0.046766  -0.047738   0.120053
   40  O  3  S    0.000000   0.001905   0.250501  -0.311780  -0.314139
   41  O  3  X   -0.000149   0.000000   0.000000   0.000000  -0.000000
   42  O  3  Y    0.000000   0.001262   0.038178  -0.024620   0.076017
   43  O  3  Z    0.000000   0.000241   0.018289  -0.019467   0.052246
   44  O  3 XX    0.000000  -0.000076   0.000825   0.000058  -0.001889
   45  O  3 YY    0.000000  -0.000340   0.019190  -0.010827   0.009728
   46  O  3 ZZ    0.000000  -0.000500   0.004725  -0.004934   0.001303
   47  O  3 XY   -0.000322   0.000000   0.000000   0.000000  -0.000000
   48  O  3 XZ   -0.000165   0.000000   0.000000   0.000000  -0.000000
   49  O  3 YZ    0.000000  -0.000553   0.011656  -0.008484   0.010585

                     11         12         13         14         15
                   -0.6872    -0.6782    -0.6470    -0.5308    -0.5014
                     A          A          A          A          A   
    1  S  1  S   -0.000000   0.006740  -0.000000   0.000000   0.000000
    2  S  1  S   -0.000000  -0.032997  -0.000000   0.000000   0.000000
    3  S  1  X   -0.000000  -0.000000  -0.179057   0.000000   0.000000
    4  S  1  Y   -0.164974  -0.000000  -0.000000   0.013625   0.000000
    5  S  1  Z   -0.000000  -0.173974  -0.000000   0.000000   0.000000
    6  S  1  S   -0.000000   0.068448  -0.000000   0.000000   0.000000
    7  S  1  X   -0.000000  -0.000000   0.465517   0.000000   0.000000
    8  S  1  Y    0.431584  -0.000000  -0.000000  -0.042072   0.000000
    9  S  1  Z   -0.000000   0.455491  -0.000000   0.000000   0.000000
   10  S  1  S   -0.000000   0.108753  -0.000000   0.000000   0.000000
   11  S  1  X   -0.000000  -0.000000   0.151517   0.000000   0.000000
   12  S  1  Y    0.010387  -0.000000  -0.000000   0.107655   0.000000
   13  S  1  Z   -0.000000   0.107334  -0.000000   0.000000   0.000000
   14  S  1 XX   -0.000000   0.019919  -0.000000   0.000000   0.000000
   15  S  1 YY   -0.000000   0.028398  -0.000000   0.000000   0.000000
   16  S  1 ZZ   -0.000000  -0.053022  -0.000000   0.000000   0.000000
   17  S  1 XY   -0.000000  -0.000000  -0.000000   0.000000   0.126416
   18  S  1 XZ   -0.000000  -0.000000  -0.050957   0.000000   0.000000
   19  S  1 YZ   -0.059788  -0.000000  -0.000000   0.100955   0.000000
   20  O  2  S    0.059249  -0.024150  -0.000000  -0.003484   0.000000
   21  O  2  S   -0.137063   0.052864  -0.000000   0.018981   0.000000
   22  O  2  X   -0.000000  -0.000000   0.316672   0.000000   0.426487
   23  O  2  Y   -0.251075   0.280527  -0.000000   0.333967   0.000000
   24  O  2  Z    0.276530   0.190296  -0.000000   0.310661   0.000000
   25  O  2  S   -0.241322   0.109168  -0.000000  -0.029637   0.000000
   26  O  2  X   -0.000000  -0.000000   0.222820   0.000000   0.362066
   27  O  2  Y   -0.128565   0.174991  -0.000000   0.244980   0.000000
   28  O  2  Z    0.162008   0.136753  -0.000000   0.234654   0.000000
   29  O  2 XX   -0.004988   0.001563  -0.000000   0.004679   0.000000
   30  O  2 YY    0.009711  -0.030466  -0.000000  -0.022980   0.000000
   31  O  2 ZZ    0.009091   0.015579  -0.000000   0.029304   0.000000
   32  O  2 XY   -0.000000  -0.000000  -0.028393   0.000000  -0.031431
   33  O  2 XZ   -0.000000  -0.000000   0.015979   0.000000   0.019643
   34  O  2 YZ   -0.019442  -0.003968  -0.000000  -0.010880   0.000000
   35  O  3  S   -0.059249  -0.024150  -0.000000   0.003484   0.000000
   36  O  3  S    0.137063   0.052864  -0.000000  -0.018981   0.000000
   37  O  3  X   -0.000000  -0.000000   0.316672   0.000000  -0.426487
   38  O  3  Y   -0.251075  -0.280527  -0.000000   0.333967   0.000000
   39  O  3  Z   -0.276530   0.190296  -0.000000  -0.310661   0.000000
   40  O  3  S    0.241322   0.109168  -0.000000   0.029637   0.000000
   41  O  3  X   -0.000000  -0.000000   0.222820   0.000000  -0.362066
   42  O  3  Y   -0.128565  -0.174991  -0.000000   0.244980   0.000000
   43  O  3  Z   -0.162008   0.136753  -0.000000  -0.234654   0.000000
   44  O  3 XX    0.004988   0.001563  -0.000000  -0.004679   0.000000
   45  O  3 YY   -0.009711  -0.030466  -0.000000   0.022980   0.000000
   46  O  3 ZZ   -0.009091   0.015579  -0.000000  -0.029304   0.000000
   47  O  3 XY   -0.000000  -0.000000   0.028393   0.000000  -0.031431
   48  O  3 XZ   -0.000000  -0.000000   0.015979   0.000000  -0.019643
   49  O  3 YZ   -0.019442   0.003968  -0.000000  -0.010880   0.000000

                     16         17         18         19         20
                   -0.4902     0.0012     0.2027     0.2081     0.3815
                     A          A          A          A          A   
    1  S  1  S    0.021361  -0.000000   0.016766   0.000000  -0.062862
    2  S  1  S   -0.103668  -0.000000  -0.111495   0.000000   0.088976
    3  S  1  X   -0.000000  -0.204470   0.000000   0.000000  -0.000000
    4  S  1  Y   -0.000000  -0.000000   0.000000  -0.113791  -0.000000
    5  S  1  Z   -0.136640  -0.000000   0.114773   0.000000   0.109294
    6  S  1  S    0.221460  -0.000000   0.072423   0.000000  -1.412044
    7  S  1  X   -0.000000   0.576361   0.000000   0.000000  -0.000000
    8  S  1  Y   -0.000000  -0.000000   0.000000   0.337142  -0.000000
    9  S  1  Z    0.375893  -0.000000  -0.350975   0.000000  -0.481932
   10  S  1  S    0.425612  -0.000000   1.290429   0.000000   1.879219
   11  S  1  X   -0.000000   0.505821   0.000000   0.000000  -0.000000
   12  S  1  Y   -0.000000  -0.000000   0.000000   1.501014  -0.000000
   13  S  1  Z    0.062914  -0.000000  -1.086160   0.000000   0.403390
   14  S  1 XX    0.054582  -0.000000   0.166113   0.000000  -0.071990
   15  S  1 YY   -0.140311  -0.000000  -0.095469   0.000000  -0.015313
   16  S  1 ZZ    0.075665  -0.000000  -0.047834   0.000000  -0.026870
   17  S  1 XY   -0.000000  -0.000000   0.000000   0.000000  -0.000000
   18  S  1 XZ   -0.000000   0.066709   0.000000   0.000000  -0.000000
   19  S  1 YZ   -0.000000  -0.000000   0.000000   0.146469  -0.000000
   20  O  2  S    0.002742  -0.000000   0.064496   0.060064   0.011855
   21  O  2  S    0.005716  -0.000000  -0.066968  -0.036589   0.016045
   22  O  2  X   -0.000000  -0.318499   0.000000   0.000000  -0.000000
   23  O  2  Y    0.070944  -0.000000   0.245319   0.031579  -0.095553
   24  O  2  Z   -0.380376  -0.000000   0.042075  -0.196847   0.065249
   25  O  2  S   -0.070294  -0.000000  -0.833486  -0.911910  -0.345529
   26  O  2  X   -0.000000  -0.368314   0.000000   0.000000  -0.000000
   27  O  2  Y    0.047098  -0.000000   0.485561   0.142811   0.034235
   28  O  2  Z   -0.308131  -0.000000   0.039732  -0.332744  -0.055220
   29  O  2 XX    0.009647  -0.000000   0.044824   0.038330   0.025455
   30  O  2 YY    0.005481  -0.000000   0.013245   0.030082   0.002152
   31  O  2 ZZ   -0.008016  -0.000000   0.023547   0.040906   0.004707
   32  O  2 XY   -0.000000   0.006611   0.000000   0.000000  -0.000000
   33  O  2 XZ   -0.000000  -0.001866   0.000000   0.000000  -0.000000
   34  O  2 YZ    0.018653  -0.000000   0.009841   0.006732   0.026537
   35  O  3  S    0.002742  -0.000000   0.064496  -0.060064   0.011855
   36  O  3  S    0.005716  -0.000000  -0.066968   0.036589   0.016045
   37  O  3  X   -0.000000  -0.318499   0.000000   0.000000  -0.000000
   38  O  3  Y   -0.070944  -0.000000  -0.245319   0.031579   0.095553
   39  O  3  Z   -0.380376  -0.000000   0.042075   0.196847   0.065249
   40  O  3  S   -0.070294  -0.000000  -0.833486   0.911910  -0.345529
   41  O  3  X   -0.000000  -0.368314   0.000000   0.000000  -0.000000
   42  O  3  Y   -0.047098  -0.000000  -0.485561   0.142811  -0.034235
   43  O  3  Z   -0.308131  -0.000000   0.039732   0.332744  -0.055220
   44  O  3 XX    0.009647  -0.000000   0.044824  -0.038330   0.025455
   45  O  3 YY    0.005481  -0.000000   0.013245  -0.030082   0.002152
   46  O  3 ZZ   -0.008016  -0.000000   0.023547  -0.040906   0.004707
   47  O  3 XY   -0.000000  -0.006611   0.000000   0.000000  -0.000000
   48  O  3 XZ   -0.000000  -0.001866   0.000000   0.000000  -0.000000
   49  O  3 YZ   -0.018653  -0.000000  -0.009841   0.006732  -0.026537

                     21         22         23         24         25
                    0.4402     0.5096     0.5977     0.8997     0.9001
                     A          A          A          A          A   
    1  S  1  S   -0.000000   0.035018  -0.000000  -0.000526  -0.000000
    2  S  1  S   -0.000000  -0.064206  -0.000000  -0.002779  -0.000000
    3  S  1  X    0.275434   0.000000  -0.000000  -0.000000  -0.027773
    4  S  1  Y   -0.000000   0.000000   0.311377  -0.000000  -0.000000
    5  S  1  Z   -0.000000   0.267212  -0.000000  -0.026155  -0.000000
    6  S  1  S   -0.000000   0.753962  -0.000000  -0.024753  -0.000000
    7  S  1  X   -1.134422   0.000000  -0.000000  -0.000000   0.131513
    8  S  1  Y   -0.000000   0.000000  -1.237130  -0.000000  -0.000000
    9  S  1  Z   -0.000000  -1.065963  -0.000000   0.143588  -0.000000
   10  S  1  S   -0.000000  -0.903329  -0.000000  -0.052775  -0.000000
   11  S  1  X    1.329789   0.000000  -0.000000  -0.000000  -0.135478
   12  S  1  Y   -0.000000   0.000000   1.283517  -0.000000  -0.000000
   13  S  1  Z   -0.000000   1.230054  -0.000000  -0.106589  -0.000000
   14  S  1 XX   -0.000000   0.113960  -0.000000  -0.612777  -0.000000
   15  S  1 YY   -0.000000  -0.210028  -0.000000  -0.236005  -0.000000
   16  S  1 ZZ   -0.000000   0.100466  -0.000000   0.848379  -0.000000
   17  S  1 XY   -0.000000   0.000000  -0.000000  -0.000000  -0.000000
   18  S  1 XZ    0.074386   0.000000  -0.000000  -0.000000   0.927770
   19  S  1 YZ   -0.000000   0.000000  -0.301734  -0.000000  -0.000000
   20  O  2  S   -0.000000  -0.003165  -0.002934  -0.003980  -0.000000
   21  O  2  S   -0.000000  -0.105180   0.107248  -0.107215  -0.000000
   22  O  2  X    0.002659   0.000000  -0.000000  -0.000000   0.225874
   23  O  2  Y   -0.000000   0.223416  -0.203190   0.136632  -0.000000
   24  O  2  Z   -0.000000  -0.078982   0.151081   0.254905  -0.000000
   25  O  2  S   -0.000000   0.479018  -0.416887   0.202219  -0.000000
   26  O  2  X   -0.118002   0.000000  -0.000000  -0.000000  -0.050808
   27  O  2  Y   -0.000000   0.024410  -0.132453  -0.066323  -0.000000
   28  O  2  Z   -0.000000  -0.101260   0.041907  -0.084951  -0.000000
   29  O  2 XX   -0.000000  -0.051573   0.049690  -0.083602  -0.000000
   30  O  2 YY   -0.000000   0.031818   0.015798   0.031096  -0.000000
   31  O  2 ZZ   -0.000000  -0.069266  -0.006529  -0.072703  -0.000000
   32  O  2 XY    0.036899   0.000000  -0.000000  -0.000000   0.088053
   33  O  2 XZ   -0.017371   0.000000  -0.000000  -0.000000   0.017120
   34  O  2 YZ   -0.000000  -0.007706   0.056327   0.073276  -0.000000
   35  O  3  S   -0.000000  -0.003165   0.002934  -0.003980  -0.000000
   36  O  3  S   -0.000000  -0.105180  -0.107248  -0.107215  -0.000000
   37  O  3  X    0.002659   0.000000  -0.000000  -0.000000   0.225874
   38  O  3  Y   -0.000000  -0.223416  -0.203190  -0.136632  -0.000000
   39  O  3  Z   -0.000000  -0.078982  -0.151081   0.254905  -0.000000
   40  O  3  S   -0.000000   0.479018   0.416887   0.202219  -0.000000
   41  O  3  X   -0.118002   0.000000  -0.000000  -0.000000  -0.050808
   42  O  3  Y   -0.000000  -0.024410  -0.132453   0.066323  -0.000000
   43  O  3  Z   -0.000000  -0.101260  -0.041907  -0.084951  -0.000000
   44  O  3 XX   -0.000000  -0.051573  -0.049690  -0.083602  -0.000000
   45  O  3 YY   -0.000000   0.031818  -0.015798   0.031096  -0.000000
   46  O  3 ZZ   -0.000000  -0.069266   0.006529  -0.072703  -0.000000
   47  O  3 XY   -0.036899   0.000000  -0.000000  -0.000000  -0.088053
   48  O  3 XZ   -0.017371   0.000000  -0.000000  -0.000000   0.017120
   49  O  3 YZ   -0.000000   0.007706   0.056327  -0.073276  -0.000000

                     26         27         28         29         30
                    0.9092     1.0010     1.0212     1.2043     1.2086
                     A          A          A          A          A   
    1  S  1  S   -0.000000  -0.015444   0.000000   0.000000  -0.006182
    2  S  1  S   -0.000000  -0.008924   0.000000   0.000000  -0.012312
    3  S  1  X   -0.000000  -0.000000   0.000000   0.000000   0.000000
    4  S  1  Y   -0.000000  -0.000000  -0.114350   0.000000   0.000000
    5  S  1  Z   -0.000000  -0.068051   0.000000   0.000000  -0.031098
    6  S  1  S   -0.000000  -0.377731   0.000000   0.000000  -0.198720
    7  S  1  X   -0.000000  -0.000000   0.000000   0.000000   0.000000
    8  S  1  Y   -0.000000  -0.000000   0.665785   0.000000   0.000000
    9  S  1  Z   -0.000000   0.398123   0.000000   0.000000   0.190888
   10  S  1  S   -0.000000  -0.193865   0.000000   0.000000  -0.338804
   11  S  1  X   -0.000000  -0.000000   0.000000   0.000000   0.000000
   12  S  1  Y   -0.000000  -0.000000  -0.098400   0.000000   0.000000
   13  S  1  Z   -0.000000  -0.018581   0.000000   0.000000  -0.326336
   14  S  1 XX   -0.000000   0.403393   0.000000   0.000000  -0.017423
   15  S  1 YY   -0.000000  -0.654048   0.000000   0.000000  -0.405823
   16  S  1 ZZ   -0.000000  -0.002721   0.000000   0.000000   0.347682
   17  S  1 XY    0.874166  -0.000000   0.000000   0.331434   0.000000
   18  S  1 XZ   -0.000000  -0.000000   0.000000   0.000000   0.000000
   19  S  1 YZ   -0.000000  -0.000000  -0.536559   0.000000   0.000000
   20  O  2  S   -0.000000  -0.020230   0.018543   0.000000  -0.020308
   21  O  2  S   -0.000000   0.434208  -0.476293   0.000000  -0.214365
   22  O  2  X   -0.296450  -0.000000   0.000000   0.634133   0.000000
   23  O  2  Y   -0.000000   0.318313  -0.200733   0.000000  -0.229708
   24  O  2  Z   -0.000000   0.006147   0.247548   0.000000  -0.524138
   25  O  2  S   -0.000000  -0.399755   0.506441   0.000000   0.549619
   26  O  2  X    0.029352  -0.000000   0.000000  -0.781550   0.000000
   27  O  2  Y   -0.000000  -0.721225   0.682101   0.000000   0.082306
   28  O  2  Z   -0.000000   0.298734  -0.471958   0.000000   0.856530
   29  O  2 XX   -0.000000   0.169116  -0.158670   0.000000  -0.053831
   30  O  2 YY   -0.000000   0.174949  -0.133094   0.000000  -0.029739
   31  O  2 ZZ   -0.000000   0.108759  -0.195224   0.000000  -0.130375
   32  O  2 XY   -0.090635  -0.000000   0.000000  -0.075924   0.000000
   33  O  2 XZ    0.089965  -0.000000   0.000000   0.048867   0.000000
   34  O  2 YZ   -0.000000   0.015080  -0.006648   0.000000   0.074818
   35  O  3  S   -0.000000  -0.020230  -0.018543   0.000000  -0.020308
   36  O  3  S   -0.000000   0.434208   0.476293   0.000000  -0.214365
   37  O  3  X    0.296450  -0.000000   0.000000  -0.634133   0.000000
   38  O  3  Y   -0.000000  -0.318313  -0.200733   0.000000   0.229708
   39  O  3  Z   -0.000000   0.006147  -0.247548   0.000000  -0.524138
   40  O  3  S   -0.000000  -0.399755  -0.506441   0.000000   0.549619
   41  O  3  X   -0.029352  -0.000000   0.000000   0.781550   0.000000
   42  O  3  Y   -0.000000   0.721225   0.682101   0.000000  -0.082306
   43  O  3  Z   -0.000000   0.298734   0.471958   0.000000   0.856530
   44  O  3 XX   -0.000000   0.169116   0.158670   0.000000  -0.053831
   45  O  3 YY   -0.000000   0.174949   0.133094   0.000000  -0.029739
   46  O  3 ZZ   -0.000000   0.108759   0.195224   0.000000  -0.130375
   47  O  3 XY   -0.090635  -0.000000   0.000000  -0.075924   0.000000
   48  O  3 XZ   -0.089965  -0.000000   0.000000  -0.048867   0.000000
   49  O  3 YZ   -0.000000  -0.015080  -0.006648   0.000000  -0.074818

                     31         32         33         34         35
                    1.2610     1.2806     1.3336     1.4106     1.5161
[...]
   44  O  3 XX   -0.001850   0.005673   0.000000   0.003959   0.000000
   45  O  3 YY    0.030854  -0.008123   0.000000  -0.025222   0.000000
   46  O  3 ZZ   -0.016833  -0.009442   0.000000   0.031870   0.000000
   47  O  3 XY    0.000000   0.000000  -0.030097   0.000000  -0.032849
   48  O  3 XZ    0.000000   0.000000  -0.017288   0.000000  -0.021010
   49  O  3 YZ   -0.004139  -0.019444   0.000000   0.012554   0.000000

                     16         17         18         19         20
                   -0.4881     0.0275     0.2238     0.2260     0.3912
                     A          A          A          A          A   
    1  S  1  S    0.022551   0.000000   0.000000   0.010867  -0.059907
    2  S  1  S   -0.108789   0.000000   0.000000  -0.090516   0.091205
    3  S  1  X    0.000000   0.200348   0.000000   0.000000   0.000000
    4  S  1  Y    0.000000   0.000000   0.096997   0.000000   0.000000
    5  S  1  Z   -0.140776   0.000000   0.000000   0.094917   0.133300
    6  S  1  S    0.231748   0.000000   0.000000  -0.021231  -1.323976
    7  S  1  X    0.000000  -0.567070   0.000000   0.000000   0.000000
    8  S  1  Y    0.000000   0.000000  -0.294628   0.000000   0.000000
    9  S  1  Z    0.385577   0.000000   0.000000  -0.306891  -0.584332
   10  S  1  S    0.465483   0.000000   0.000000   1.548222   1.746933
   11  S  1  X    0.000000  -0.561984   0.000000   0.000000   0.000000
   12  S  1  Y    0.000000   0.000000  -1.583328   0.000000   0.000000
   13  S  1  Z    0.069420   0.000000   0.000000  -1.234639   0.553844
   14  S  1 XX    0.062831   0.000000   0.000000   0.171577  -0.082600
   15  S  1 YY   -0.148484   0.000000   0.000000  -0.074761  -0.005207
   16  S  1 ZZ    0.084740   0.000000   0.000000  -0.060345  -0.019751
   17  S  1 XY    0.000000   0.000000   0.000000   0.000000   0.000000
   18  S  1 XZ    0.000000  -0.076802   0.000000   0.000000   0.000000
   19  S  1 YZ    0.000000   0.000000  -0.143022   0.000000   0.000000
   20  O  2  S    0.006258   0.000000  -0.061065   0.069400   0.008849
   21  O  2  S   -0.004806   0.000000   0.031669  -0.051897   0.016478
   22  O  2  X    0.000000   0.313765   0.000000   0.000000   0.000000
   23  O  2  Y    0.069523   0.000000  -0.002806   0.198178  -0.087566
   24  O  2  Z   -0.369820   0.000000   0.188657   0.054667   0.062905
   25  O  2  S   -0.080511   0.000000   0.970702  -1.002341  -0.294400
   26  O  2  X    0.000000   0.384918   0.000000   0.000000   0.000000
   27  O  2  Y    0.037362   0.000000  -0.094902   0.486670   0.022273
   28  O  2  Z   -0.300144   0.000000   0.335064   0.062474  -0.061761
   29  O  2 XX    0.009218   0.000000  -0.040780   0.057380   0.020696
   30  O  2 YY    0.006031   0.000000  -0.035610   0.014761   0.004082
   31  O  2 ZZ   -0.008461   0.000000  -0.041314   0.033715  -0.000941
   32  O  2 XY    0.000000  -0.008095   0.000000   0.000000   0.000000
   33  O  2 XZ    0.000000   0.001848   0.000000   0.000000   0.000000
   34  O  2 YZ    0.018322   0.000000  -0.008336   0.009888   0.026622
   35  O  3  S    0.006258   0.000000   0.061065   0.069400   0.008849
   36  O  3  S   -0.004806   0.000000  -0.031669  -0.051897   0.016478
   37  O  3  X    0.000000   0.313765   0.000000   0.000000   0.000000
   38  O  3  Y   -0.069523   0.000000  -0.002806  -0.198178   0.087566
   39  O  3  Z   -0.369820   0.000000  -0.188657   0.054667   0.062905
   40  O  3  S   -0.080511   0.000000  -0.970702  -1.002341  -0.294400
   41  O  3  X    0.000000   0.384918   0.000000   0.000000   0.000000
   42  O  3  Y   -0.037362   0.000000  -0.094902  -0.486670  -0.022273
   43  O  3  Z   -0.300144   0.000000  -0.335064   0.062474  -0.061761
   44  O  3 XX    0.009218   0.000000   0.040780   0.057380   0.020696
   45  O  3 YY    0.006031   0.000000   0.035610   0.014761   0.004082
   46  O  3 ZZ   -0.008461   0.000000   0.041314   0.033715  -0.000941
   47  O  3 XY    0.000000   0.008095   0.000000   0.000000   0.000000
   48  O  3 XZ    0.000000   0.001848   0.000000   0.000000   0.000000
   49  O  3 YZ   -0.018322   0.000000  -0.008336  -0.009888  -0.026622

                     21         22         23         24         25
                    0.4388     0.5456     0.6346     0.9169     0.9230
                     A          A          A          A          A   
    1  S  1  S    0.000000   0.041997   0.000000   0.000000   0.002176
    2  S  1  S    0.000000  -0.084404   0.000000   0.000000  -0.005725
    3  S  1  X   -0.277893   0.000000   0.000000   0.024777   0.000000
    4  S  1  Y    0.000000   0.000000   0.304472   0.000000   0.000000
    5  S  1  Z    0.000000   0.259368   0.000000   0.000000  -0.010451
    6  S  1  S    0.000000   0.879519   0.000000   0.000000   0.029391
    7  S  1  X    1.136246   0.000000   0.000000  -0.125128   0.000000
    8  S  1  Y    0.000000   0.000000  -1.198349   0.000000   0.000000
    9  S  1  Z    0.000000  -1.018831   0.000000   0.000000   0.073082
   10  S  1  S    0.000000  -0.962989   0.000000   0.000000  -0.038295
   11  S  1  X   -1.313688   0.000000   0.000000   0.155904   0.000000
   12  S  1  Y    0.000000   0.000000   1.205451   0.000000   0.000000
   13  S  1  Z    0.000000   1.067149   0.000000   0.000000  -0.110620
   14  S  1 XX    0.000000   0.197878   0.000000   0.000000  -0.637845
   15  S  1 YY    0.000000  -0.270536   0.000000   0.000000  -0.166282
   16  S  1 ZZ    0.000000   0.085715   0.000000   0.000000   0.841087
   17  S  1 XY    0.000000   0.000000   0.000000   0.000000   0.000000
   18  S  1 XZ   -0.067538   0.000000   0.000000  -0.925871   0.000000
   19  S  1 YZ    0.000000   0.000000  -0.383455   0.000000   0.000000
   20  O  2  S    0.000000   0.002039  -0.004003   0.000000  -0.001155
   21  O  2  S    0.000000  -0.131365   0.112818   0.000000  -0.171633
   22  O  2  X   -0.016652   0.000000   0.000000  -0.233266   0.000000
   23  O  2  Y    0.000000   0.256744  -0.193315   0.000000   0.121244
   24  O  2  Z    0.000000  -0.077298   0.165322   0.000000   0.257722
   25  O  2  S    0.000000   0.460982  -0.392515   0.000000   0.259483
   26  O  2  X    0.100665   0.000000   0.000000   0.028148   0.000000
   27  O  2  Y    0.000000   0.073851  -0.108830   0.000000   0.021500
   28  O  2  Z    0.000000  -0.075099   0.063698   0.000000  -0.101128
   29  O  2 XX    0.000000  -0.052509   0.051688   0.000000  -0.112776
   30  O  2 YY    0.000000   0.035634   0.017065   0.000000   0.011937
   31  O  2 ZZ    0.000000  -0.077020  -0.015048   0.000000  -0.088186
   32  O  2 XY   -0.038493   0.000000   0.000000  -0.092209   0.000000
   33  O  2 XZ    0.018466   0.000000   0.000000  -0.025718   0.000000
   34  O  2 YZ    0.000000  -0.011578   0.060624   0.000000   0.079258
   35  O  3  S    0.000000   0.002039   0.004003   0.000000  -0.001155
   36  O  3  S    0.000000  -0.131365  -0.112818   0.000000  -0.171633
   37  O  3  X   -0.016652   0.000000   0.000000  -0.233266   0.000000
   38  O  3  Y    0.000000  -0.256744  -0.193315   0.000000  -0.121244
   39  O  3  Z    0.000000  -0.077298  -0.165322   0.000000   0.257722
   40  O  3  S    0.000000   0.460982   0.392515   0.000000   0.259483
   41  O  3  X    0.100665   0.000000   0.000000   0.028148   0.000000
   42  O  3  Y    0.000000  -0.073851  -0.108830   0.000000  -0.021500
   43  O  3  Z    0.000000  -0.075099  -0.063698   0.000000  -0.101128
   44  O  3 XX    0.000000  -0.052509  -0.051688   0.000000  -0.112776
   45  O  3 YY    0.000000   0.035634  -0.017065   0.000000   0.011937
   46  O  3 ZZ    0.000000  -0.077020   0.015048   0.000000  -0.088186
   47  O  3 XY    0.038493   0.000000   0.000000   0.092209   0.000000
   48  O  3 XZ    0.018466   0.000000   0.000000  -0.025718   0.000000
   49  O  3 YZ    0.000000   0.011578   0.060624   0.000000  -0.079258

                     26
                    0.9414
                     A   
    1  S  1  S    0.000000
    2  S  1  S    0.000000
    3  S  1  X    0.000000
    4  S  1  Y    0.000000
    5  S  1  Z    0.000000
    6  S  1  S    0.000000
    7  S  1  X    0.000000
    8  S  1  Y    0.000000
    9  S  1  Z    0.000000
   10  S  1  S    0.000000
   11  S  1  X    0.000000
   12  S  1  Y    0.000000
   13  S  1  Z    0.000000
   14  S  1 XX    0.000000
   15  S  1 YY    0.000000
   16  S  1 ZZ    0.000000
   17  S  1 XY    0.888238
   18  S  1 XZ    0.000000
   19  S  1 YZ    0.000000
   20  O  2  S    0.000000
   21  O  2  S    0.000000
   22  O  2  X   -0.279054
   23  O  2  Y    0.000000
   24  O  2  Z    0.000000
   25  O  2  S    0.000000
   26  O  2  X   -0.024760
   27  O  2  Y    0.000000
   28  O  2  Z    0.000000
   29  O  2 XX    0.000000
   30  O  2 YY    0.000000
   31  O  2 ZZ    0.000000
   32  O  2 XY   -0.087625
   33  O  2 XZ    0.097951
   34  O  2 YZ    0.000000
   35  O  3  S    0.000000
   36  O  3  S    0.000000
   37  O  3  X    0.279054
   38  O  3  Y    0.000000
   39  O  3  Z    0.000000
   40  O  3  S    0.000000
   41  O  3  X    0.024760
   42  O  3  Y    0.000000
   43  O  3  Z    0.000000
   44  O  3 XX    0.000000
   45  O  3 YY    0.000000
   46  O  3 ZZ    0.000000
   47  O  3 XY   -0.087625
   48  O  3 XZ   -0.097951
   49  O  3 YZ    0.000000

     ----------------------------------------------------------------
     PROPERTY VALUES FOR THE UHF   SELF-CONSISTENT FIELD WAVEFUNCTION
     ----------------------------------------------------------------

          -----------------
          ENERGY COMPONENTS
          -----------------

         WAVEFUNCTION NORMALIZATION =       1.0000000000

                ONE ELECTRON ENERGY =    -972.6510329273
                TWO ELECTRON ENERGY =     315.7727240192
           NUCLEAR REPULSION ENERGY =     109.7093031338
                                      ------------------
                       TOTAL ENERGY =    -547.1690057743

 ELECTRON-ELECTRON POTENTIAL ENERGY =     315.7727240192
  NUCLEUS-ELECTRON POTENTIAL ENERGY =   -1519.0559895237
   NUCLEUS-NUCLEUS POTENTIAL ENERGY =     109.7093031338
                                      ------------------
             TOTAL POTENTIAL ENERGY =   -1093.5739623707
               TOTAL KINETIC ENERGY =     546.4049565964
                 VIRIAL RATIO (V/T) =       2.0013983204

  ...... PI ENERGY ANALYSIS ......

 ENERGY ANALYSIS:
            FOCK ENERGY=   -341.1055941609
          BARE H ENERGY=   -972.6510329273
     ELECTRONIC ENERGY =   -656.8783135441
         KINETIC ENERGY=    546.4049565964
          N-N REPULSION=    109.7093031338
           TOTAL ENERGY=   -547.1690104103
        SIGMA PART(1+2)=   -585.5001608517
               (K,V1,2)=    503.0161227713  -1348.9852672631    260.4689836400
           PI PART(1+2)=    -71.3781526924
               (K,V1,2)=     43.3888338251   -170.0707222607     55.3037357432
  SIGMA SKELETON, ERROR=   -475.7908577179     -0.0000000000
             MIXED PART= 0.00000E+00 0.00000E+00 0.00000E+00 0.00000E+00
 ...... END OF PI ENERGY ANALYSIS ......

          ---------------------------------------
          MULLIKEN AND LOWDIN POPULATION ANALYSES
          ---------------------------------------

     ATOMIC MULLIKEN POPULATION IN EACH MOLECULAR ORBITAL
        ALPHA ORBITALS

                      1          2          3          4          5

                  1.000000   1.000000   1.000000   1.000000   1.000000

    1             0.999982  -0.000032  -0.000034   1.001124   1.000387
    2             0.000009   0.500016   0.500017  -0.000562  -0.000194
    3             0.000009   0.500016   0.500017  -0.000562  -0.000194

                      6          7          8          9         10

                  1.000000   1.000000   1.000000   1.000000   1.000000

    1             1.000030   1.000135   0.310687   0.188633   0.432998
    2            -0.000015  -0.000068   0.344657   0.405684   0.283501
    3            -0.000015  -0.000068   0.344657   0.405684   0.283501

                     11         12         13         14         15

                  1.000000   1.000000   1.000000   1.000000   1.000000

    1             0.358749   0.192453   0.417005   0.061828   0.054040
    2             0.320625   0.403773   0.291498   0.469086   0.472980
    3             0.320625   0.403773   0.291498   0.469086   0.472980

                     16

                  1.000000

    1             0.444408
    2             0.277796
    3             0.277796

     ATOMIC MULLIKEN POPULATION IN EACH MOLECULAR ORBITAL
         BETA ORBITALS

                      1          2          3          4          5

                  1.000000   1.000000   1.000000   1.000000   1.000000

    1             0.999982  -0.000032  -0.000034   1.001124   1.000387
    2             0.000009   0.500016   0.500017  -0.000562  -0.000194
    3             0.000009   0.500016   0.500017  -0.000562  -0.000194

                      6          7          8          9         10

                  1.000000   1.000000   1.000000   1.000000   1.000000

    1             1.000030   1.000135   0.310687   0.188633   0.432998
    2            -0.000015  -0.000068   0.344657   0.405684   0.283501
    3            -0.000015  -0.000068   0.344657   0.405684   0.283501

                     11         12         13         14         15

                  1.000000   1.000000   1.000000   1.000000   1.000000

    1             0.358749   0.192453   0.417005   0.061828   0.054040
    2             0.320625   0.403773   0.291498   0.469086   0.472980
    3             0.320625   0.403773   0.291498   0.469086   0.472980

                     16

                  1.000000

    1             0.444408
    2             0.277796
    3             0.277796

     ATOMIC SPIN POPULATION (ALPHA MINUS BETA)
       ATOM         MULL.POP.                    LOW.POP.
    1 S             0.000000                     0.000000
    2 O            -0.000000                     0.000000
    3 O            -0.000000                    -0.000000


          ********* ALL ELECTRONS ********

               ----- POPULATIONS IN EACH AO -----
                             MULLIKEN      LOWDIN
              1  S  1  S      1.99892     1.99855
              2  S  1  S      1.99959     1.97272
              3  S  1  X      1.99085     1.95598
              4  S  1  Y      1.99212     1.95849
              5  S  1  Z      1.99379     1.96769
              6  S  1  S      1.33088     0.54644
              7  S  1  X      0.64361     0.57191
              8  S  1  Y      0.73926     0.58921
              9  S  1  Z      0.98232     0.89007
             10  S  1  S      0.49036     0.46840
             11  S  1  X      0.18151     0.28794
             12  S  1  Y      0.01618     0.19043
             13  S  1  Z      0.13637     0.31005
             14  S  1 XX      0.01015     0.24841
             15  S  1 YY      0.10083     0.31418
             16  S  1 ZZ      0.05290     0.29750
             17  S  1 XY      0.10808     0.12945
             18  S  1 XZ      0.01810     0.01839
             19  S  1 YZ      0.13898     0.15543
             20  O  2  S      1.99561     1.97833
             21  O  2  S      0.93738     0.75028
             22  O  2  X      0.83755     0.80657
             23  O  2  Y      0.93181     0.89025
             24  O  2  Z      1.05476     1.02612
             25  O  2  S      0.89238     0.49174
             26  O  2  X      0.67576     0.69308
             27  O  2  Y      0.48910     0.60919
             28  O  2  Z      0.65386     0.71460
             29  O  2 XX      0.00531     0.17987
             30  O  2 YY      0.02656     0.20144
             31  O  2 ZZ      0.01298     0.18592
             32  O  2 XY      0.01137     0.01370
             33  O  2 XZ      0.00425     0.00482
             34  O  2 YZ      0.00894     0.01849
             35  O  3  S      1.99561     1.97833
             36  O  3  S      0.93738     0.75028
             37  O  3  X      0.83755     0.80657
             38  O  3  Y      0.93181     0.89025
             39  O  3  Z      1.05476     1.02612
             40  O  3  S      0.89238     0.49174
             41  O  3  X      0.67576     0.69308
             42  O  3  Y      0.48910     0.60919
             43  O  3  Z      0.65386     0.71460
             44  O  3 XX      0.00531     0.17987
             45  O  3 YY      0.02656     0.20144
             46  O  3 ZZ      0.01298     0.18592
             47  O  3 XY      0.01137     0.01370
             48  O  3 XZ      0.00425     0.00482
             49  O  3 YZ      0.00894     0.01849

          ----- MULLIKEN ATOMIC OVERLAP POPULATIONS -----
          (OFF-DIAGONAL ELEMENTS NEED TO BE MULTIPLIED BY 2)

             1           2           3

    1   14.2427513
    2    0.3410169   8.2389160
    3    0.3410169  -0.0423254   8.2389160

          TOTAL MULLIKEN AND LOWDIN ATOMIC POPULATIONS
       ATOM         MULL.POP.    CHARGE          LOW.POP.     CHARGE
    1 S            14.924785    1.075215        14.871220    1.128780
    2 O             8.537607   -0.537607         8.564390   -0.564390
    3 O             8.537607   -0.537607         8.564390   -0.564390

          -------------------------------
          BOND ORDER AND VALENCE ANALYSIS     BOND ORDER THRESHOLD=0.050
          -------------------------------

                   BOND                       BOND                       BOND
  ATOM PAIR DIST  ORDER      ATOM PAIR DIST  ORDER      ATOM PAIR DIST  ORDER
    1   2  1.414  1.741        1   3  1.414  1.741        2   3  2.435  0.115

                       TOTAL       BONDED        FREE
      ATOM            VALENCE     VALENCE     VALENCE
    1 S                 3.482       3.482      -0.000
    2 O                 1.857       1.857      -0.000
    3 O                 1.857       1.857       0.000

          -----------------------------------------
          ATOMIC SPIN DENSITY AT THE NUCLEUS (A.U.)
          -----------------------------------------
                            SPIN DENS    ALPHA DENS     BETA DENS
    1  S           16.0     0.0000000    1252.47747    1252.47747
    2  O            8.0    -0.0000000     145.48385     145.48385
    3  O            8.0    -0.0000000     145.48385     145.48385

          ---------------------
          ELECTROSTATIC MOMENTS
          ---------------------

 POINT   1           X           Y           Z (BOHR)    CHARGE
                 0.000000    0.000000   -0.003365        0.00 (A.U.)
         DX          DY          DZ         /D/  (DEBYE)
    -0.000000   -0.000000    2.185723    2.185723
 ...... END OF PROPERTY EVALUATION ......
 STEP CPU TIME =     0.00 TOTAL CPU TIME =          1.0 (      0.0 MIN)
 TOTAL WALL CLOCK TIME=          1.1 SECONDS, CPU UTILIZATION IS    99.51%
  $VIB   
          IVIB=   0 IATOM=   0 ICOORD=   0 E=     -547.1690057743
  0.000000000E+00 0.000000000E+00 4.290225833E-07 0.000000000E+00-8.924343784E-07
 -2.145118464E-07 0.000000000E+00 8.924317656E-07-2.145095023E-07
 -6.840505995E-16-2.234966292E-11 2.185722515E+00
 ......END OF GEOMETRY SEARCH......
 STEP CPU TIME =     0.00 TOTAL CPU TIME =          1.0 (      0.0 MIN)
 TOTAL WALL CLOCK TIME=          1.1 SECONDS, CPU UTILIZATION IS    99.51%
               997495  WORDS OF DYNAMIC MEMORY USED
 EXECUTION OF GAMESS TERMINATED NORMALLY 19:56:13 20-OCT-2025    
----- accounting info -----
Files used on the parent node Macbooks-MacBook-Pro.local were:
-rw-r--r--  1 macbookpro  staff      289 Oct 20 19:56 /Users/macbookpro/local/gamess/scr/so2_q0m1_uhf_631g_star.F05
-rw-r--r--  1 macbookpro  staff  4320384 Oct 20 19:56 /Users/macbookpro/local/gamess/scr/so2_q0m1_uhf_631g_star.F08
-rw-r--r--  1 macbookpro  staff  2061360 Oct 20 19:56 /Users/macbookpro/local/gamess/scr/so2_q0m1_uhf_631g_star.F10
-rw-r--r--  1 macbookpro  staff   345192 Oct 20 19:56 /Users/macbookpro/local/gamess/scr/so2_q0m1_uhf_631g_star.dat
Mon Oct 20 19:56:13 +07 2025
1.058u 0.084s 0:01.14 99.1%	0+0k 0+0io 46pf+0w
