1 : so_q0m3_uhf_631g_star.inp
----- GAMESS execution script 'rungms' -----
This job is running on host Macbooks-MacBook-Pro.local
under operating system Darwin at Mon Oct 20 19:56:10 +07 2025
Available scratch disk space (Kbyte units) at beginning of the job is
Filesystem   1024-blocks      Used Available Capacity iused      ifree %iused  Mounted on
/dev/disk3s5   482797652 122175672 339917540    27% 1896411 3399175400    0%   /System/Volumes/Data
GAMESS temporary binary files will be written to /Users/macbookpro/local/gamess/scr
GAMESS supplementary output files will be written to /Users/macbookpro/local/gamess/scr
Copying input file /Users/macbookpro/sq2_data/so_q0m3_uhf_631g_star.inp to your run's scratch directory...
          *******************************************************
          *                                                     *
          *          GAMESS VERSION = 30 JUN 2023 (R1)          *
          *                                                     *
          *              doi.org/10.1063/5.0005188              *
          *                                                     *
          **************** 64 BIT LINUX VERSION *****************

  GAMESS HAS BEEN MADE POSSIBLE WITH IMPORTANT CONTRIBUTIONS FROM
  THE FOLLOWING INDIVIDUALS (IN ALPHABETICAL ORDER):

     IVANA ADAMOVIC, CHRISTINE AIKENS, TOMOKO AKAMA,
     MELISA ALKAN, YURI ALEXEEV, YURIKO AOKI, POOJA ARORA,
     TOSHIO ASADA, ANDREY ASADCHEV, KIM K. BALDRIDGE,
     PRADIPTA BANDYOPADHYAY, TAYLOR A. BARNES, MARIA BARYSZ,
     ROB BELL, JONATHAN BENTZ, COLLEEN BERTONI,
     JERRY A. BOATZ, BRETT BODE, KURT BRORSEN, KURT R. BRORSEN,
     LAIMUTIS BYTAUTAS, CALEB CARLIN, LAURA CARRINGTON,
     GALINA CHABAN, BENOIT CHAMPAGNE, WEI CHEN, MAHITO CHIBA,
     DAN CHIPMAN, CHEOL HO CHOI, TANNER CULPITT,
     DIPAYAN DATTA, PAUL DAY, ALBERT DEFUSCO,
     NUWAN DESILVA, J. EMILIANO DEUSTUA,
     TIM DUDLEY, MICHEL DUPUIS, STEVEN T. ELBERT,
     DMITRI FEDOROV, KATHERINE FERRERAS, MICHAEL FILATOV,
     ALEX FINDLATER,GRAHAM FLETCHER, MARK FREITAG,
     CHRISTIAN FRIEDL, DAVID GARMER, 
     IGOR S. GERASIMOV, KURT GLAESEMANN,
     MARK S. GORDON, JEFFREY R. GOUR, FENG LONG GU,
     EMILIE B. GUIDEZ, ANASTASIA GUNINA, SHARON HAMMES-SCHIFFER,
     MASATAKE HARUTA, KIMIHIKO HIRAO, YASUHIRO IKABATA,
     TZVETELIN IORDANOV, STEPHAN IRLE, KAZUYA ISHIMURA,
     JOE IVANIC, FRANK JENSEN, JAN H. JENSEN, VISVALDAS KAIRYS,
     MUNEAKI KAMIYA, MICHIO KATOUDA, NAOAKI KAWAKAMI, DAN KEMP,
     BERNARD KIRTMAN, KAZUO KITAURA, MARIUSZ KLOBUKOWSKI,
     MASATO KOBAYASHI, KONSTANTIN KOMAROV, PRAKASHAN KORAMBATH,
     JACEK KORCHOWIEC, SHIRO KOSEKI, KAROL KOWALSKI,
     JIMMY KROMANN, STANISLAW A. KUCHARSKI, HENRY KURTZ,
     SAROM SOK LEANG, SEUNGHOON LEE, HUI LI, SHUHUA LI, WEI LI,
     JESSE J. LUTZ, ALEKSANDR O. LYKHIN,
     ILIAS MAGOULAS, MARCIN MAKOWSKI,
     JOANI MATO, NIKITA MATSUNAGA, BENEDETTA MENNUCCI,
     GRANT MERRILL, NORIYUKI MINEZAWA, VLADIMIR MIRONOV,
     EISAKU MIYOSHI, JOHN A. MONTGOMERY JR., HIROTOSHI MORI,
     JONATHAN MULLIN, MONIKA MUSIAL, SHIGERU NAGASE,
     TAKESHI NAGATA, HIROMI NAKAI, TAKAHITO NAKAJIMA,
     YUYA NAKAJIMA, HARUYUKI NAKANO, HIROYA NAKATA, SEAN NEDD,
     HEATHER NETZLOFF, KIET A. NGUYEN, YOSHIO NISHIMOTO,
     BOSILJKA NJEGIC, RYAN OLSON, MIKE PAK, ROBERTO PEVERATI,
     BUU PHAM, PIOTR PIECUCH, ANNA POMOGAEVA, DAVID POOLE,
     SPENCER PRUITT, OLIVIER QUINET, LUKE ROSKOP,
     KLAUS RUEDENBERG, ANDREW SAND, TOSAPORN SATTASATHUCHANA,
     NOZOMI SAWADA, MICHAEL W. SCHMIDT, PATRICK E. SCHNEIDER,
     JUNJI SEINO, PRACHI SHARMA, JUN SHEN, JIM SHOEMAKER,
     YINAN SHU, DEJUN SI, JONATHAN SKONE, LYUDMILA SLIPCHENKO,
     TONY SMITH, JIE SONG, MARK SPACKMAN, CASPER STEINMANN,
     WALT STEVENS, PEIFENG SU, SHUJUN SU, CHET SWALINA,
     CHINAMI TAKASHIMA, TETSUYA TAKETSUGU, ZHEN TAO,
     NANDUN THELLAMUREGE, SEIKEN TOKURA, JACOPO TOMASI,
     TSUGUKI TOUMA, TAKAO TSUNEDA, HIROAKI UMEDA,
     JORGE LUIS GALVEZ VALLEJO, YALI WANG, SIMON WEBB,
     AARON WEST, THERESA L. WINDUS, MARTA WLOCH,
     PENG XU, KIYOSHI YAGI, SUSUMU YANAGISAWA, YANG YANG,
     SOOHAENG YOO, TAKESHI YOSHIKAWA, FEDERICO ZAHARIEV,
     TOBY ZENG

  WHO ARE SUPPORTED BY THEIR INSTITUTION/UNIVERSITY/COMPANY/GROUP
  (IN ALPHABETICAL ORDER):

     EP ANALYTICS,
     FACULTES UNIVERSITAIRES NOTRE-DAME DE LA PAIX,
     INSTITUTE FOR MOLECULAR SCIENCE, IOWA STATE UNIVERSITY,
     JACKSON STATE UNIVERSITY, JOHANNES KEPLER UNIVERSITY LINZ,
     KYUNGPOOK NATIONAL UNIVERSITY
     KYUSHU UNIVERSITY, MICHIGAN STATE UNIVERSITY,
     MIE UNIVERSITY, THE MOLECULAR SCIENCES SOFTWARE INSTITUTE,
     MOSCOW STATE UNIVERSITY,
     N. COPERNICUS UNIVERSITY, NAGOYA UNIVERSITY,
     NANJING UNIVERSITY, NAT. INST. OF ADVANCED INDUSTRIAL
     SCIENCE AND TECHNOLOGY, NATIONAL INST. OF STANDARDS AND
     TECHNOLOGY, NESMEYANOV INSTITUTE OF ORGANOELEMENT COMPOUNDS
     OF RUSSIAN ACADEMY OF SCIENCES, OSAKA PREFECTURE UNIVERSITY,
     PENNSYLVANIA STATE UNIVERSITY, TOKYO INSTITUTE OF TECHNOLOGY,
     UNIVERSITY OF AARHUS, UNIVERSITY OF ALBERTA,
     UNIVERSITY OF CALIFORNIA AT SANTA BARBARA,
     UNIVERSITY OF COPENHAGEN, UNIVERSITY OF IOWA,
     UNIVERSITY OF MEMPHIS, UNIVERSITY OF MINNESOTA,
     UNIVERSITY OF NEBRASKA, UNIVERSITY OF NEW ENGLAND,
     UNIVERSITY OF NOTRE DAME, UNIVERSITY OF PISA,
     UNIVERSITY OF SILESIA, UNIVERSITY OF TOKYO,
     UNIVERSITY OF ZURICH, WASEDA UNIVERSITY,
     YALE UNIVERSITY

  GAMESS SOFTWARE MANAGEMENT TEAM FOR THIS RELEASE:
     MARK S. GORDON (TEAM LEAD),
     BRETT BODE (SENIOR ADVISOR),
     GIUSEPPE BARCA,
     COLLEEN BERTONI,
     KRISTOPHER KEIPERT (ADVISOR),
     SAROM S. LEANG (DEVELOPMENT LEAD),
     BUU PHAM,
     JACKSON HAYES (WEBSITE ADMINISTRATOR),
     PENG XU

 EXECUTION OF GAMESS BEGUN 19:56:10 20-OCT-2025    

            ECHO OF THE FIRST FEW INPUT CARDS -
 INPUT CARD> $CONTRL SCFTYP=UHF ICHARG=0 MULT=3                                             
 INPUT CARD> RUNTYP=OPTIMIZE                                                                
 INPUT CARD> $END                                                                           
 INPUT CARD> $BASIS GBASIS=N31 NGAUSS=6 NDFUNC=1 $END                                       
 INPUT CARD> $DATA                                                                          
 INPUT CARD> ... this is comment ...                                                        
 INPUT CARD> C1                                                                             
 INPUT CARD> O     8   0.00000000   0.00000000  -1.01216084                                 
 INPUT CARD> S    16   0.00000000   0.00000000   0.51322184                                 
 INPUT CARD> $END                                                                           
 INPUT CARD>                                                                                
      1000000 WORDS OF MEMORY AVAILABLE

     BASIS OPTIONS
     -------------
     GBASIS=N31          IGAUSS=       6      POLAR=POPN31  
     NDFUNC=       1     NFFUNC=       0     DIFFSP=       F
     NPFUNC=       0      DIFFS=       F     BASNAM=        


     RUN TITLE
     ---------
  ... this is comment ...                                                        

 THE POINT GROUP OF THE MOLECULE IS C1      
 THE ORDER OF THE PRINCIPAL AXIS IS     0

 ATOM      ATOMIC                      COORDINATES (BOHR)
           CHARGE         X                   Y                   Z
 O           8.0     0.0000000000        0.0000000000       -1.9127066431
 S          16.0     0.0000000000        0.0000000000        0.9698486485

          INTERNUCLEAR DISTANCES (ANGS.)
          ------------------------------

                1 O          2 S     

   1 O       0.0000000    1.5253827 *
   2 S       1.5253827 *  0.0000000  

  * ... LESS THAN  3.000


     ATOMIC BASIS SET
     ----------------
 THE CONTRACTED PRIMITIVE FUNCTIONS HAVE BEEN UNNORMALIZED
 THE CONTRACTED BASIS FUNCTIONS ARE NOW NORMALIZED TO UNITY

  SHELL TYPE  PRIMITIVE        EXPONENT          CONTRACTION COEFFICIENT(S)

 O         

      1   S       1          5484.6716600    0.001831074430
      1   S       2           825.2349460    0.013950172200
      1   S       3           188.0469580    0.068445078098
      1   S       4            52.9645000    0.232714335992
      1   S       5            16.8975704    0.470192897984
      1   S       6             5.7996353    0.358520852987

      2   L       7            15.5396162   -0.110777549525    0.070874268231
      2   L       8             3.5999336   -0.148026262701    0.339752839147
      2   L       9             1.0137618    1.130767015354    0.727158577316

      3   L      10             0.2700058    1.000000000000    1.000000000000

      4   D      11             0.8000000    1.000000000000

 S         

      5   S      12         21917.1000000    0.001869240849
      5   S      13          3301.4900000    0.014230306464
      5   S      14           754.1460000    0.069696231659
      5   S      15           212.7110000    0.238487108332
      5   S      16            67.9896000    0.483307219541
      5   S      17            23.0515000    0.338074153569

      6   L      18           423.7350000   -0.002376770499    0.004061009982
      6   L      19           100.7100000   -0.031693006651    0.030681299864
      6   L      20            32.1599000   -0.113317023779    0.130451999421
      6   L      21            11.8079000    0.056090011770    0.327204998547
      6   L      22             4.6311000    0.592255124284    0.452850997989
      6   L      23             1.8702500    0.455006095483    0.256041998863

      7   L      24             2.6158400   -0.250373114159   -0.014510489547
      7   L      25             0.9221670    0.066956763101    0.310262776489
      7   L      26             0.3412870    1.054506269068    0.754482456476

      8   L      27             0.1171670    1.000000000000    1.000000000000

      9   D      28             0.6500000    1.000000000000

 TOTAL NUMBER OF BASIS SET SHELLS             =    9
 NUMBER OF CARTESIAN GAUSSIAN BASIS FUNCTIONS =   34
 NUMBER OF ELECTRONS                          =   24
 CHARGE OF MOLECULE                           =    0
 SPIN MULTIPLICITY                            =    3
 NUMBER OF OCCUPIED ORBITALS (ALPHA)          =   13
 NUMBER OF OCCUPIED ORBITALS (BETA )          =   11
 TOTAL NUMBER OF ATOMS                        =    2
 THE NUCLEAR REPULSION ENERGY IS       44.4050458884

 THIS MOLECULE IS RECOGNIZED AS BEING LINEAR,
 ORBITAL LZ DEGENERACY TOLERANCE ETOLLZ= 1.00E-06

     $CONTRL OPTIONS
     ---------------
 SCFTYP=UHF          RUNTYP=OPTIMIZE     EXETYP=RUN     
 MPLEVL=       0     CITYP =NONE         CCTYP =NONE         VBTYP =NONE    
 DFTTYP=NONE         TDDFT =NONE    
 MULT  =       3     ICHARG=       0     NZVAR =       0     COORD =UNIQUE  
 PP    =NONE         RELWFN=NONE         LOCAL =NONE         NUMGRD=       F
 ISPHER=      -1     NOSYM =       0     MAXIT =      30     UNITS =ANGS    
 PLTORB=       F     MOLPLT=       F     AIMPAC=       F     FRIEND=        
 NPRINT=       7     IREST =       0     GEOM  =INPUT   
 NORMF =       0     NORMP =       0     ITOL  =      20     ICUT  =       9
 INTTYP=BEST         GRDTYP=BEST         QMTTOL= 1.0E-06

     $SYSTEM OPTIONS
     ---------------
  REPLICATED MEMORY=     1000000 WORDS (ON EVERY NODE).
 DISTRIBUTED MEMDDI=           0 MILLION WORDS IN AGGREGATE,
 MEMDDI DISTRIBUTED OVER   1 PROCESSORS IS           0 WORDS/PROCESSOR.
 TOTAL MEMORY REQUESTED ON EACH PROCESSOR=     1000000 WORDS.
 TIMLIM=      525600.00 MINUTES, OR     365.0 DAYS.
 PARALL= F  BALTYP=  DLB     KDIAG=    0  COREFL= F
 MXSEQ2=     300 MXSEQ3=     150  mem10=         0  mem22=         0

          ----------------
          PROPERTIES INPUT
          ----------------

     MOMENTS            FIELD           POTENTIAL          DENSITY
 IEMOM =       1   IEFLD =       0   IEPOT =       0   IEDEN =       0
 WHERE =COMASS     WHERE =NUCLEI     WHERE =NUCLEI     WHERE =NUCLEI  
 OUTPUT=BOTH       OUTPUT=BOTH       OUTPUT=BOTH       OUTPUT=BOTH    
 IEMINT=       0   IEFINT=       0                     IEDINT=       0
                                                       MORB  =       0
          EXTRAPOLATION IN EFFECT
          SOSCF IN EFFECT
          DIIS or SOSCF will be reset if energy rises
 ORBITAL PRINTING OPTION: NPREO=     1    34     2     1

     -------------------------------
     INTEGRAL TRANSFORMATION OPTIONS
     -------------------------------
     NWORD  =            0
     CUTTRF = 1.0E-09     MPTRAN =       0
     DIRTRF =       F     AOINTS =DUP     

          ----------------------
          INTEGRAL INPUT OPTIONS
          ----------------------
 NOPK  =       1 NORDER=       0 SCHWRZ=       F

     ------------------------------------------
     THE POINT GROUP IS C1 , NAXIS= 0, ORDER= 1
     ------------------------------------------

     DIMENSIONS OF THE SYMMETRY SUBSPACES ARE
 A   =   34

 ..... DONE SETTING UP THE RUN .....
 STEP CPU TIME =     0.00 TOTAL CPU TIME =          0.0 (      0.0 MIN)
 TOTAL WALL CLOCK TIME=          0.0 SECONDS, CPU UTILIZATION IS    97.22%


          -----------------------------
          STATIONARY POINT LOCATION RUN
          -----------------------------

 OBTAINING INITIAL HESSIAN, HESS=GUESS   
 CARTESIAN COORDINATE OPTIMIZATION USING BADGER'S RULE FORCE CONSTANT GUESS

          PARAMETERS CONTROLLING GEOMETRY SEARCH ARE
          METHOD =QA                  UPHESS =BFGS    
          NNEG   =         0          NFRZ   =         0
          NSTEP  =        50          IFOLOW =         1
          HESS   =GUESS               RESTAR =         F
          IHREP  =         0          HSSEND =         F
          NPRT   =         0          NPUN   =         0
          OPTTOL = 1.000E-04          RMIN   = 1.500E-03
          RMAX   = 1.000E-01          RLIM   = 7.000E-02
          DXMAX  = 3.000E-01          PURIFY =         F
          MOVIE  =         F          TRUPD  =         T
          TRMAX  = 5.000E-01          TRMIN  = 5.000E-02
          ITBMAT =         5          STPT   =         F
          STSTEP = 1.000E-02          PROJCT=          T

 BEGINNING GEOMETRY SEARCH POINT NSERCH=   0 ...

 COORDINATES OF ALL ATOMS ARE (ANGS)
   ATOM   CHARGE       X              Y              Z
 ------------------------------------------------------------
 O           8.0   0.0000000000   0.0000000000  -1.0121608400
 S          16.0   0.0000000000   0.0000000000   0.5132218400

          ********************
          1 ELECTRON INTEGRALS
          ********************
 ...... END OF ONE-ELECTRON INTEGRALS ......
 STEP CPU TIME =     0.00 TOTAL CPU TIME =          0.0 (      0.0 MIN)
 TOTAL WALL CLOCK TIME=          0.0 SECONDS, CPU UTILIZATION IS    97.52%

          -------------
          GUESS OPTIONS
          -------------
          GUESS =HUCKEL            NORB  =       0          NORDER=       0
          MIX   =       F          PRTMO =       F          PUNMO =       F
          TOLZ  = 1.0E-08          TOLE  = 1.0E-05
          SYMDEN=       F          PURIFY=       F

 INITIAL GUESS ORBITALS GENERATED BY HUCKEL   ROUTINE.
 HUCKEL GUESS REQUIRES     11066 WORDS.

 SYMMETRIES FOR INITIAL GUESS ORBITALS FOLLOW.  ALPHA SET(S).
    13 ORBITALS ARE OCCUPIED (    6 CORE ORBITALS).
     7=A        8=A        9=A       10=A       11=A       12=A       13=A   
    14=A       15=A       16=A       17=A       18=A       19=A       20=A   
    21=A       22=A       23=A   

 SYMMETRIES FOR INITIAL GUESS ORBITALS FOLLOW.   BETA SET(S).
    11 ORBITALS ARE OCCUPIED (    6 CORE ORBITALS).
     7=A        8=A        9=A       10=A       11=A       12=A       13=A   
    14=A       15=A       16=A       17=A       18=A       19=A       20=A   
    21=A   
 ...... END OF INITIAL ORBITAL SELECTION ......
 STEP CPU TIME =     0.00 TOTAL CPU TIME =          0.0 (      0.0 MIN)
 TOTAL WALL CLOCK TIME=          0.0 SECONDS, CPU UTILIZATION IS    97.93%

                    ----------------------
                    AO INTEGRAL TECHNOLOGY
                    ----------------------
     S,P,L SHELL ROTATED AXIS INTEGRALS, REPROGRAMMED BY
        KAZUYA ISHIMURA (IMS) AND JOSE SIERRA (SYNSTAR).
     S,P,D,L SHELL ROTATED AXIS INTEGRALS PROGRAMMED BY
        KAZUYA ISHIMURA (INSTITUTE FOR MOLECULAR SCIENCE).
     S,P,D,F,G SHELL TO TOTAL QUARTET ANGULAR MOMENTUM SUM 5,
        ERIC PROGRAM BY GRAHAM FLETCHER (ELORET AND NASA ADVANCED
        SUPERCOMPUTING DIVISION, AMES RESEARCH CENTER).
     S,P,D,F,G,L SHELL GENERAL RYS QUADRATURE PROGRAMMED BY
        MICHEL DUPUIS (PACIFIC NORTHWEST NATIONAL LABORATORY).

          --------------------
          2 ELECTRON INTEGRALS
          --------------------

 THE -PK- OPTION IS OFF, THE INTEGRALS ARE NOT IN SUPERMATRIX FORM.
 STORING   15000 INTEGRALS/RECORD ON DISK, USING 12 BYTES/INTEGRAL.
 TWO ELECTRON INTEGRAL EVALUATION REQUIRES   90441 WORDS OF MEMORY.
 II,JST,KST,LST =  1  1  1  1 NREC =         1 INTLOC =    1
 II,JST,KST,LST =  2  1  1  1 NREC =         1 INTLOC =    2
 II,JST,KST,LST =  3  1  1  1 NREC =         1 INTLOC =   34
 II,JST,KST,LST =  4  1  1  1 NREC =         1 INTLOC =  214
 II,JST,KST,LST =  5  1  1  1 NREC =         1 INTLOC = 1189
 II,JST,KST,LST =  6  1  1  1 NREC =         1 INTLOC = 1791
 II,JST,KST,LST =  7  1  1  1 NREC =         1 INTLOC = 5427
 II,JST,KST,LST =  8  1  1  1 NREC =         1 INTLOC =11911
 II,JST,KST,LST =  9  1  1  1 NREC =         2 INTLOC = 7230
 TOTAL NUMBER OF NONZERO TWO-ELECTRON INTEGRALS =               46240
          4 INTEGRAL RECORDS WERE STORED ON DISK FILE  8.
  ...... END OF TWO-ELECTRON INTEGRALS .....
 STEP CPU TIME =     0.01 TOTAL CPU TIME =          0.0 (      0.0 MIN)
 TOTAL WALL CLOCK TIME=          0.0 SECONDS, CPU UTILIZATION IS    99.29%

          ---------------------------
                  UHF SCF CALCULATION
          ---------------------------

     NUCLEAR ENERGY =        44.4050458884
     MAXIT = 30     NPUNCH=  2     MULT=  3
     EXTRAP=T  DAMP=F  SHIFT=F  RSTRCT=F  DIIS=F  SOSCF=T
     DENSITY MATRIX CONV=  1.00E-05
     SOSCF WILL OPTIMIZE     273 ALPHA AND     253 BETA ROTATION ANGLES.
     SOGTOL= 2.500E-01
     MEMORY REQUIRED FOR UHF/ROHF ITERS=     45786 WORDS.

 ITER EX      TOTAL ENERGY        E CHANGE  DENSITY CHANGE    ORB. GRAD 
   1  0     -471.8336583295  -471.8336583295   0.352120911   0.000000000
          ---------------START SECOND ORDER SCF---------------
   2  1     -472.2713088611    -0.4376505316   0.177850734   0.078519405
   3  2     -472.2877089931    -0.0164001319   0.082823073   0.066296731
   4  3     -472.3225727117    -0.0348637186   0.014201239   0.007898882
   5  4     -472.3232636451    -0.0006909335   0.020798522   0.004965977
   6  5     -472.3236846664    -0.0004210213   0.014766362   0.003556304
   7  6     -472.3238392550    -0.0001545885   0.007852498   0.002065516
   8  7     -472.3238898842    -0.0000506292   0.001756404   0.000692724
   9  8     -472.3238946772    -0.0000047930   0.000651005   0.000218599
  10  9     -472.3238952489    -0.0000005718   0.000420233   0.000109772
  11 10     -472.3238954207    -0.0000001718   0.000238406   0.000062737
  12 11     -472.3238954653    -0.0000000446   0.000083898   0.000020652
  13 12     -472.3238954709    -0.0000000056   0.000035306   0.000007076
  14 13     -472.3238954715    -0.0000000007   0.000012168   0.000002952
  15 14     -472.3238954716    -0.0000000001   0.000002230   0.000000810

          -----------------
          DENSITY CONVERGED
          -----------------
     TIME TO FORM FOCK OPERATORS=       0.0 SECONDS (       0.0 SEC/ITER)
     TIME TO SOLVE SCF EQUATIONS=       0.0 SECONDS (       0.0 SEC/ITER)

 FINAL UHF ENERGY IS     -472.3238954716 AFTER  15 ITERATIONS

          --------------------
          SPIN SZ   =    1.000
          S-SQUARED =    2.039
          --------------------

 LZ VALUE ANALYSIS FOR THE MOS
 ----------------------------------------
 MO     1 (    1) HAS LZ(WEIGHT)= 0.00(100.0%) 
 MO     2 (    2) HAS LZ(WEIGHT)= 0.00(100.0%) 
 MO     3 (    3) HAS LZ(WEIGHT)= 0.00(100.0%) 
 MO     4 (    4) HAS LZ(WEIGHT)=-1.00( 50.0%)  1.00( 50.0%) 
 MO     5 (    4) HAS LZ(WEIGHT)=-1.00( 50.0%)  1.00( 50.0%) 
 MO     6 (    5) HAS LZ(WEIGHT)= 0.00(100.0%) 
 MO     7 (    6) HAS LZ(WEIGHT)= 0.00(100.0%) 
 MO     8 (    7) HAS LZ(WEIGHT)= 0.00(100.0%) 
 MO     9 (    8) HAS LZ(WEIGHT)=-1.00( 50.0%)  1.00( 50.0%) 
 MO    10 (    8) HAS LZ(WEIGHT)=-1.00( 50.0%)  1.00( 50.0%) 
 MO    11 (    9) HAS LZ(WEIGHT)= 0.00(100.0%) 
 MO    12 (   10) HAS LZ(WEIGHT)=-1.00( 50.0%)  1.00( 50.0%) 
 MO    13 (   10) HAS LZ(WEIGHT)=-1.00( 50.0%)  1.00( 50.0%) 
 MO    14 (   11) HAS LZ(WEIGHT)= 0.00(100.0%) 
 MO    15 (   12) HAS LZ(WEIGHT)= 0.00(100.0%) 
 MO    16 (   13) HAS LZ(WEIGHT)=-1.00( 50.0%)  1.00( 50.0%) 
 MO    17 (   13) HAS LZ(WEIGHT)=-1.00( 50.0%)  1.00( 50.0%) 
 MO    18 (   14) HAS LZ(WEIGHT)= 0.00(100.0%) 
 MO    19 (   15) HAS LZ(WEIGHT)=-1.00( 50.0%)  1.00( 50.0%) 
 MO    20 (   15) HAS LZ(WEIGHT)=-1.00( 50.0%)  1.00( 50.0%) 
 MO    21 (   16) HAS LZ(WEIGHT)=-2.00( 50.0%)  2.00( 50.0%) 
 MO    22 (   16) HAS LZ(WEIGHT)=-2.00( 50.0%)  2.00( 50.0%) 
 MO    23 (   17) HAS LZ(WEIGHT)= 0.00(100.0%) 
 MO    24 (   18) HAS LZ(WEIGHT)=-1.00( 50.0%)  1.00( 50.0%) 
 MO    25 (   18) HAS LZ(WEIGHT)=-1.00( 50.0%)  1.00( 50.0%) 
 MO    26 (   19) HAS LZ(WEIGHT)= 0.00(100.0%) 
 MO    27 (   20) HAS LZ(WEIGHT)= 0.00(100.0%) 
 MO    28 (   21) HAS LZ(WEIGHT)=-2.00( 50.0%)  2.00( 50.0%) 
 MO    29 (   21) HAS LZ(WEIGHT)=-2.00( 50.0%)  2.00( 50.0%) 
 MO    30 (   22) HAS LZ(WEIGHT)=-1.00( 50.0%)  1.00( 50.0%) 
 MO    31 (   22) HAS LZ(WEIGHT)=-1.00( 50.0%)  1.00( 50.0%) 
 MO    32 (   23) HAS LZ(WEIGHT)= 0.00(100.0%) 
 MO    33 (   24) HAS LZ(WEIGHT)= 0.00(100.0%) 
 MO    34 (   25) HAS LZ(WEIGHT)= 0.00(100.0%) 

  ----- ALPHA SET ----- 

          ------------
          EIGENVECTORS
          ------------

                      1          2          3          4          5
                  -92.0536   -20.6751    -9.0577    -6.7461    -6.7461
                     A          A          A          A          A   
    1  O  1  S    0.000026   0.994324  -0.000114  -0.000000   0.000000
    2  O  1  S    0.000069   0.022240   0.000532  -0.000000   0.000000
    3  O  1  X   -0.000000   0.000000  -0.000000   0.000024   0.000116
    4  O  1  Y   -0.000000   0.000000  -0.000000   0.000116  -0.000024
    5  O  1  Z   -0.000054   0.001221   0.000405  -0.000000   0.000000
    6  O  1  S   -0.000013   0.004607  -0.001526  -0.000000   0.000000
    7  O  1  X   -0.000000   0.000000  -0.000000  -0.000031  -0.000147
    8  O  1  Y   -0.000000   0.000000  -0.000000  -0.000147   0.000031
    9  O  1  Z    0.000228  -0.000576  -0.001790  -0.000000   0.000000
   10  O  1 XX    0.000071  -0.004244   0.000241  -0.000000   0.000000
   11  O  1 YY    0.000071  -0.004244   0.000241  -0.000000   0.000000
   12  O  1 ZZ   -0.000072  -0.004798  -0.000280  -0.000000   0.000000
   13  O  1 XY   -0.000000   0.000000  -0.000000  -0.000000   0.000000
   14  O  1 XZ   -0.000000   0.000000  -0.000000  -0.000076  -0.000361
   15  O  1 YZ   -0.000000   0.000000  -0.000000  -0.000361   0.000076
   16  S  2  S    0.996249   0.000014  -0.281868  -0.000000   0.000000
   17  S  2  S    0.014300  -0.000044   1.030490  -0.000000   0.000000
   18  S  2  X   -0.000000   0.000000  -0.000000   0.205617   0.972354
   19  S  2  Y   -0.000000   0.000000  -0.000000   0.972354  -0.205617
   20  S  2  Z   -0.000079   0.000070  -0.005119  -0.000000   0.000000
   21  S  2  S   -0.020022   0.000470   0.021385  -0.000000   0.000000
   22  S  2  X   -0.000000   0.000000  -0.000000   0.004213   0.019922
   23  S  2  Y   -0.000000   0.000000  -0.000000   0.019922  -0.004213
   24  S  2  Z    0.000094  -0.000540  -0.001777  -0.000000   0.000000
   25  S  2  S    0.002305  -0.000406  -0.004560  -0.000000   0.000000
   26  S  2  X   -0.000000   0.000000  -0.000000  -0.000929  -0.004393
   27  S  2  Y   -0.000000   0.000000  -0.000000  -0.004393   0.000929
   28  S  2  Z    0.000023   0.000369  -0.000048  -0.000000   0.000000
   29  S  2 XX    0.006981  -0.000101  -0.000370  -0.000000   0.000000
   30  S  2 YY    0.006981  -0.000101  -0.000370  -0.000000   0.000000
   31  S  2 ZZ    0.006960   0.000177   0.000283  -0.000000   0.000000
   32  S  2 XY   -0.000000   0.000000  -0.000000  -0.000000   0.000000
   33  S  2 XZ   -0.000000   0.000000  -0.000000  -0.000062  -0.000293
   34  S  2 YZ   -0.000000   0.000000  -0.000000  -0.000293   0.000062

                      6          7          8          9         10
                   -6.7341    -1.4496    -0.9528    -0.6764    -0.6764
                     A          A          A          A          A   
    1  O  1  S    0.000373  -0.206771   0.096585  -0.000000   0.000000
    2  O  1  S   -0.000887   0.495054  -0.222416  -0.000000   0.000000
    3  O  1  X   -0.000000   0.000000  -0.000000   0.541214  -0.265570
    4  O  1  Y   -0.000000   0.000000  -0.000000   0.265570   0.541214
    5  O  1  Z   -0.000746   0.104526   0.196268  -0.000000   0.000000
    6  O  1  S    0.003288   0.406653  -0.332704  -0.000000   0.000000
    7  O  1  X   -0.000000   0.000000  -0.000000   0.332030  -0.162925
    8  O  1  Y   -0.000000   0.000000  -0.000000   0.162925   0.332030
    9  O  1  Z    0.003520   0.043280   0.077716  -0.000000   0.000000
   10  O  1 XX   -0.000213   0.006926  -0.002666  -0.000000   0.000000
   11  O  1 YY   -0.000213   0.006926  -0.002666  -0.000000   0.000000
   12  O  1 ZZ   -0.000013   0.021440   0.025768  -0.000000   0.000000
   13  O  1 XY   -0.000000   0.000000  -0.000000  -0.000000   0.000000
   14  O  1 XZ   -0.000000   0.000000  -0.000000   0.028309  -0.013891
   15  O  1 YZ   -0.000000   0.000000  -0.000000   0.013891   0.028309
   16  S  2  S   -0.001648   0.027941   0.070494  -0.000000   0.000000
   17  S  2  S    0.006223  -0.128727  -0.321930  -0.000000   0.000000
   18  S  2  X   -0.000000   0.000000  -0.000000  -0.109858   0.053907
   19  S  2  Y   -0.000000   0.000000  -0.000000  -0.053907  -0.109858
   20  S  2  Z    0.992834   0.067614  -0.026589  -0.000000   0.000000
   21  S  2  S   -0.003233   0.236706   0.695071  -0.000000   0.000000
   22  S  2  X   -0.000000   0.000000  -0.000000   0.286054  -0.140365
   23  S  2  Y   -0.000000   0.000000  -0.000000   0.140365   0.286054
   24  S  2  Z    0.024517  -0.132988   0.066502  -0.000000   0.000000
   25  S  2  S   -0.001591   0.017042   0.285135  -0.000000   0.000000
   26  S  2  X   -0.000000   0.000000  -0.000000   0.088169  -0.043264
   27  S  2  Y   -0.000000   0.000000  -0.000000   0.043264   0.088169
   28  S  2  Z   -0.004282   0.023637   0.013594  -0.000000   0.000000
   29  S  2 XX    0.001529  -0.017261   0.015574  -0.000000   0.000000
   30  S  2 YY    0.001529  -0.017261   0.015574  -0.000000   0.000000
   31  S  2 ZZ   -0.001409   0.049141  -0.020779  -0.000000   0.000000
   32  S  2 XY   -0.000000   0.000000  -0.000000  -0.000000   0.000000
   33  S  2 XZ   -0.000000   0.000000  -0.000000  -0.037318   0.018312
   34  S  2 YZ   -0.000000   0.000000  -0.000000  -0.018312  -0.037318

                     11         12         13         14         15
                   -0.6327    -0.4281    -0.4281     0.1497     0.3969
                     A          A          A          A          A   
    1  O  1  S    0.039027  -0.000000  -0.000000  -0.078427   0.016671
    2  O  1  S   -0.101650  -0.000000  -0.000000   0.062903   0.004706
    3  O  1  X   -0.000000  -0.195710  -0.282205  -0.000000  -0.000000
    4  O  1  Y   -0.000000  -0.282205   0.195710  -0.000000  -0.000000
    5  O  1  Z    0.507452  -0.000000  -0.000000   0.256502   0.103968
    6  O  1  S   -0.132998  -0.000000  -0.000000   1.064168  -0.414557
    7  O  1  X   -0.000000  -0.168857  -0.243484  -0.000000  -0.000000
    8  O  1  Y   -0.000000  -0.243484   0.168857  -0.000000  -0.000000
    9  O  1  Z    0.313153  -0.000000  -0.000000   0.472552  -0.102917
   10  O  1 XX   -0.013019  -0.000000  -0.000000  -0.050749   0.026100
   11  O  1 YY   -0.013019  -0.000000  -0.000000  -0.050749   0.026100
   12  O  1 ZZ    0.034844  -0.000000  -0.000000  -0.034228  -0.021183
   13  O  1 XY   -0.000000  -0.000000  -0.000000  -0.000000  -0.000000
   14  O  1 XZ   -0.000000  -0.003512  -0.005064  -0.000000  -0.000000
   15  O  1 YZ   -0.000000  -0.005064   0.003512  -0.000000  -0.000000
   16  S  2  S   -0.017821  -0.000000  -0.000000  -0.013800  -0.066851
   17  S  2  S    0.084359  -0.000000  -0.000000   0.078565   0.092375
   18  S  2  X   -0.000000  -0.143935  -0.207548  -0.000000  -0.000000
   19  S  2  Y   -0.000000  -0.207548   0.143935  -0.000000  -0.000000
   20  S  2  Z    0.178732  -0.000000  -0.000000  -0.125402   0.063882
   21  S  2  S   -0.182911  -0.000000  -0.000000  -0.104075  -1.481430
   22  S  2  X   -0.000000   0.404693   0.583549  -0.000000  -0.000000
   23  S  2  Y   -0.000000   0.583549  -0.404693  -0.000000  -0.000000
   24  S  2  Z   -0.450911  -0.000000  -0.000000   0.346077  -0.280768
   25  S  2  S   -0.255416  -0.000000  -0.000000  -0.681930   1.907732
   26  S  2  X   -0.000000   0.214902   0.309879  -0.000000  -0.000000
   27  S  2  Y   -0.000000   0.309879  -0.214902  -0.000000  -0.000000
   28  S  2  Z   -0.051447  -0.000000  -0.000000   1.162627   0.056158
   29  S  2 XX   -0.042046  -0.000000  -0.000000  -0.076143  -0.064789
   30  S  2 YY   -0.042046  -0.000000  -0.000000  -0.076143  -0.064789
   31  S  2 ZZ    0.087115  -0.000000  -0.000000   0.138209  -0.047887
   32  S  2 XY   -0.000000  -0.000000  -0.000000  -0.000000  -0.000000
   33  S  2 XZ   -0.000000   0.030942   0.044617  -0.000000  -0.000000
   34  S  2 YZ   -0.000000   0.044617  -0.030942  -0.000000  -0.000000

                     16         17         18         19         20
                    0.4697     0.4697     0.5867     0.9168     0.9168
                     A          A          A          A          A   
    1  O  1  S    0.000000  -0.000000  -0.004078   0.000000  -0.000000
    2  O  1  S    0.000000  -0.000000   0.152036   0.000000  -0.000000
    3  O  1  X   -0.000654  -0.010726   0.000000   0.203245   0.427312
    4  O  1  Y   -0.010726   0.000654   0.000000   0.427312  -0.203245
    5  O  1  Z    0.000000  -0.000000   0.339205   0.000000  -0.000000
    6  O  1  S    0.000000  -0.000000  -0.563249   0.000000  -0.000000
    7  O  1  X   -0.008119  -0.133156   0.000000  -0.133589  -0.280864
    8  O  1  Y   -0.133156   0.008119   0.000000  -0.280864   0.133589
    9  O  1  Z    0.000000  -0.000000   0.145469   0.000000  -0.000000
   10  O  1 XX    0.000000  -0.000000   0.067423   0.000000  -0.000000
   11  O  1 YY    0.000000  -0.000000   0.067423   0.000000  -0.000000
   12  O  1 ZZ    0.000000  -0.000000  -0.040190   0.000000  -0.000000
   13  O  1 XY    0.000000  -0.000000   0.000000   0.000000  -0.000000
   14  O  1 XZ   -0.002332  -0.038242   0.000000  -0.060726  -0.127674
   15  O  1 YZ   -0.038242   0.002332   0.000000  -0.127674   0.060726
   16  S  2  S    0.000000  -0.000000  -0.019206   0.000000  -0.000000
   17  S  2  S    0.000000  -0.000000   0.038042   0.000000  -0.000000
   18  S  2  X    0.016443   0.269664   0.000000  -0.006319  -0.013286
   19  S  2  Y    0.269664  -0.016443   0.000000  -0.013286   0.006319
   20  S  2  Z    0.000000  -0.000000  -0.315894   0.000000  -0.000000
   21  S  2  S    0.000000  -0.000000  -0.403519   0.000000  -0.000000
   22  S  2  X   -0.068587  -1.124849   0.000000   0.034266   0.072042
   23  S  2  Y   -1.124849   0.068587   0.000000   0.072042  -0.034266
   24  S  2  Z    0.000000  -0.000000   1.237474   0.000000  -0.000000
   25  S  2  S    0.000000  -0.000000   0.428237   0.000000  -0.000000
   26  S  2  X    0.079464   1.303229   0.000000  -0.011971  -0.025168
   27  S  2  Y    1.303229  -0.079464   0.000000  -0.025168   0.011971
   28  S  2  Z    0.000000  -0.000000  -1.233905   0.000000  -0.000000
   29  S  2 XX    0.000000  -0.000000  -0.089320   0.000000  -0.000000
   30  S  2 YY    0.000000  -0.000000  -0.089320   0.000000  -0.000000
   31  S  2 ZZ    0.000000  -0.000000   0.184566   0.000000  -0.000000
   32  S  2 XY    0.000000  -0.000000   0.000000   0.000000  -0.000000
   33  S  2 XZ    0.002477   0.040620   0.000000   0.358754   0.754262
   34  S  2 YZ    0.040620  -0.002477   0.000000   0.754262  -0.358754

                     21         22         23         24         25
                    0.9192     0.9192     1.0159     1.2091     1.2091
                     A          A          A          A          A   
    1  O  1  S    0.000000  -0.000000   0.010761  -0.000000  -0.000000
    2  O  1  S    0.000000  -0.000000  -0.810307  -0.000000  -0.000000
    3  O  1  X    0.000000  -0.000000  -0.000000   0.056703  -0.803284
    4  O  1  Y    0.000000  -0.000000  -0.000000  -0.803284  -0.056703
    5  O  1  Z    0.000000  -0.000000   0.430498  -0.000000  -0.000000
    6  O  1  S    0.000000  -0.000000   1.165317  -0.000000  -0.000000
    7  O  1  X    0.000000  -0.000000  -0.000000  -0.081248   1.151002
    8  O  1  Y    0.000000  -0.000000  -0.000000   1.151002   0.081248
    9  O  1  Z    0.000000  -0.000000  -0.946221  -0.000000  -0.000000
   10  O  1 XX    0.003464  -0.054244  -0.286869  -0.000000  -0.000000
   11  O  1 YY   -0.003464   0.054244  -0.286869  -0.000000  -0.000000
   12  O  1 ZZ    0.000000  -0.000000  -0.239440  -0.000000  -0.000000
   13  O  1 XY    0.062636   0.004000  -0.000000  -0.000000  -0.000000
   14  O  1 XZ    0.000000  -0.000000  -0.000000   0.010826  -0.153361
   15  O  1 YZ    0.000000  -0.000000  -0.000000  -0.153361  -0.010826
   16  S  2  S    0.000000  -0.000000   0.009619  -0.000000  -0.000000
   17  S  2  S    0.000000  -0.000000   0.003260  -0.000000  -0.000000
   18  S  2  X    0.000000  -0.000000  -0.000000   0.000485  -0.006865
   19  S  2  Y    0.000000  -0.000000  -0.000000  -0.006865  -0.000485
   20  S  2  Z    0.000000  -0.000000   0.062967  -0.000000  -0.000000
   21  S  2  S    0.000000  -0.000000   0.224133  -0.000000  -0.000000
   22  S  2  X    0.000000  -0.000000  -0.000000  -0.001619   0.022940
   23  S  2  Y    0.000000  -0.000000  -0.000000   0.022940   0.001619
   24  S  2  Z    0.000000  -0.000000  -0.353408  -0.000000  -0.000000
   25  S  2  S    0.000000  -0.000000  -0.050138  -0.000000  -0.000000
   26  S  2  X    0.000000  -0.000000  -0.000000   0.024279  -0.343951
   27  S  2  Y    0.000000  -0.000000  -0.000000  -0.343951  -0.024279
   28  S  2  Z    0.000000  -0.000000   0.136423  -0.000000  -0.000000
   29  S  2 XX    0.054912  -0.859861  -0.214234  -0.000000  -0.000000
   30  S  2 YY   -0.054912   0.859861  -0.214234  -0.000000  -0.000000
   31  S  2 ZZ    0.000000  -0.000000   0.574882  -0.000000  -0.000000
   32  S  2 XY    0.992882   0.063407  -0.000000  -0.000000  -0.000000
   33  S  2 XZ    0.000000  -0.000000  -0.000000  -0.032472   0.460017
   34  S  2 YZ    0.000000  -0.000000  -0.000000   0.460017   0.032472

                     26         27         28         29         30
                    1.3872     1.4383     2.0213     2.0213     2.2508
                     A          A          A          A          A   
    1  O  1  S   -0.057044  -0.093679   0.000000   0.000000  -0.000000
    2  O  1  S   -0.150629  -1.454018   0.000000   0.000000  -0.000000
    3  O  1  X   -0.000000  -0.000000   0.000000   0.000000  -0.113239
    4  O  1  Y   -0.000000  -0.000000   0.000000   0.000000   0.001922
    5  O  1  Z    0.724916  -0.456052   0.000000   0.000000  -0.000000
    6  O  1  S    1.007683   3.677212   0.000000   0.000000  -0.000000
    7  O  1  X   -0.000000  -0.000000   0.000000   0.000000   0.262872
    8  O  1  Y   -0.000000  -0.000000   0.000000   0.000000  -0.004463
    9  O  1  Z   -0.268086   1.440649   0.000000   0.000000  -0.000000
   10  O  1 XX   -0.057810  -0.333831   0.000001   0.865398  -0.000000
   11  O  1 YY   -0.057810  -0.333831  -0.000001  -0.865398  -0.000000
   12  O  1 ZZ   -0.171116  -0.657233   0.000000   0.000000  -0.000000
   13  O  1 XY   -0.000000  -0.000000   0.999276  -0.000001  -0.000000
   14  O  1 XZ   -0.000000  -0.000000   0.000000   0.000000   1.030678
   15  O  1 YZ   -0.000000  -0.000000   0.000000   0.000000  -0.017498
   16  S  2  S   -0.003843  -0.001504   0.000000   0.000000  -0.000000
   17  S  2  S    0.070691  -0.020353   0.000000   0.000000  -0.000000
   18  S  2  X   -0.000000  -0.000000   0.000000   0.000000   0.052717
   19  S  2  Y   -0.000000  -0.000000   0.000000   0.000000  -0.000895
   20  S  2  Z   -0.047885  -0.045083   0.000000   0.000000  -0.000000
   21  S  2  S    0.064626  -0.072119   0.000000   0.000000  -0.000000
   22  S  2  X   -0.000000  -0.000000   0.000000   0.000000  -0.205254
   23  S  2  Y   -0.000000  -0.000000   0.000000   0.000000   0.003485
   24  S  2  Z    0.092759   0.516424   0.000000   0.000000  -0.000000
   25  S  2  S   -0.524542  -1.283917   0.000000   0.000000  -0.000000
   26  S  2  X   -0.000000  -0.000000   0.000000   0.000000  -0.070245
   27  S  2  Y   -0.000000  -0.000000   0.000000   0.000000   0.001193
   28  S  2  Z    0.429474   0.908587   0.000000   0.000000  -0.000000
   29  S  2 XX    0.504872   0.081284  -0.000000  -0.097431  -0.000000
   30  S  2 YY    0.504872   0.081284   0.000000   0.097431  -0.000000
   31  S  2 ZZ   -0.831540  -0.337894   0.000000   0.000000  -0.000000
   32  S  2 XY   -0.000000  -0.000000  -0.112504   0.000000  -0.000000
   33  S  2 XZ   -0.000000  -0.000000   0.000000   0.000000   0.482933
   34  S  2 YZ   -0.000000  -0.000000   0.000000   0.000000  -0.008199

                     31         32         33         34
                    2.2508     2.9558     3.8784     4.2912
                     A          A          A          A   
    1  O  1  S    0.000000  -0.061572  -0.469636  -0.016318
    2  O  1  S    0.000000  -0.752074   0.258190  -0.164356
    3  O  1  X   -0.001922   0.000000   0.000000  -0.000000
    4  O  1  Y   -0.113239   0.000000   0.000000  -0.000000
    5  O  1  Z    0.000000  -0.106464  -0.147550   0.067494
    6  O  1  S    0.000000   2.134253   3.732282   0.343767
    7  O  1  X    0.004463   0.000000   0.000000  -0.000000
    8  O  1  Y    0.262872   0.000000   0.000000  -0.000000
    9  O  1  Z    0.000000   1.387930   0.524423   0.321579
   10  O  1 XX    0.000000  -0.741233  -1.608050  -0.129476
   11  O  1 YY    0.000000  -0.741233  -1.608050  -0.129476
   12  O  1 ZZ    0.000000   1.169841  -1.432618   0.357114
   13  O  1 XY    0.000000   0.000000   0.000000  -0.000000
   14  O  1 XZ    0.017498   0.000000   0.000000  -0.000000
   15  O  1 YZ    1.030678   0.000000   0.000000  -0.000000
   16  S  2  S    0.000000  -0.040060   0.004098   0.164716
   17  S  2  S    0.000000   0.093295  -0.042388  -0.771397
   18  S  2  X    0.000895   0.000000   0.000000  -0.000000
   19  S  2  Y    0.052717   0.000000   0.000000  -0.000000
   20  S  2  Z    0.000000  -0.198982   0.015326  -0.054364
   21  S  2  S    0.000000  -1.092035  -0.001869   6.337193
   22  S  2  X   -0.003485   0.000000   0.000000  -0.000000
   23  S  2  Y   -0.205254   0.000000   0.000000  -0.000000
   24  S  2  Z    0.000000   1.294101   0.096172   0.336501
   25  S  2  S    0.000000  -0.570519  -0.705834  -0.408970
   26  S  2  X   -0.001193   0.000000   0.000000  -0.000000
   27  S  2  Y   -0.070245   0.000000   0.000000  -0.000000
   28  S  2  Z    0.000000   0.240090   0.531605   0.022294
   29  S  2 XX    0.000000   0.451940  -0.018101  -2.667933
   30  S  2 YY    0.000000   0.451940  -0.018101  -2.667933
   31  S  2 ZZ    0.000000  -0.688419   0.001681  -2.972927
   32  S  2 XY    0.000000   0.000000   0.000000  -0.000000
   33  S  2 XZ    0.008199   0.000000   0.000000  -0.000000
   34  S  2 YZ    0.482933   0.000000   0.000000  -0.000000

 LZ VALUE ANALYSIS FOR THE MOS
 ----------------------------------------
 MO     1 (    1) HAS LZ(WEIGHT)= 0.00(100.0%) 
 MO     2 (    2) HAS LZ(WEIGHT)= 0.00(100.0%) 
 MO     3 (    3) HAS LZ(WEIGHT)= 0.00(100.0%) 
 MO     4 (    4) HAS LZ(WEIGHT)= 0.00(100.0%) 
 MO     5 (    5) HAS LZ(WEIGHT)=-1.00( 50.0%)  1.00( 50.0%) 
 MO     6 (    5) HAS LZ(WEIGHT)=-1.00( 50.0%)  1.00( 50.0%) 
 MO     7 (    6) HAS LZ(WEIGHT)= 0.00(100.0%) 
 MO     8 (    7) HAS LZ(WEIGHT)= 0.00(100.0%) 
 MO     9 (    8) HAS LZ(WEIGHT)= 0.00(100.0%) 
 MO    10 (    9) HAS LZ(WEIGHT)=-1.00( 50.0%)  1.00( 50.0%) 
 MO    11 (    9) HAS LZ(WEIGHT)=-1.00( 50.0%)  1.00( 50.0%) 
 MO    12 (   10) HAS LZ(WEIGHT)=-1.00( 50.0%)  1.00( 50.0%) 
 MO    13 (   10) HAS LZ(WEIGHT)=-1.00( 50.0%)  1.00( 50.0%) 
 MO    14 (   11) HAS LZ(WEIGHT)= 0.00(100.0%) 
 MO    15 (   12) HAS LZ(WEIGHT)= 0.00(100.0%) 
 MO    16 (   13) HAS LZ(WEIGHT)=-1.00( 50.0%)  1.00( 50.0%) 
 MO    17 (   13) HAS LZ(WEIGHT)=-1.00( 50.0%)  1.00( 50.0%) 
 MO    18 (   14) HAS LZ(WEIGHT)= 0.00(100.0%) 
 MO    19 (   15) HAS LZ(WEIGHT)=-1.00( 50.0%)  1.00( 50.0%) 
 MO    20 (   15) HAS LZ(WEIGHT)=-1.00( 50.0%)  1.00( 50.0%) 
 MO    21 (   16) HAS LZ(WEIGHT)=-2.00( 50.0%)  2.00( 50.0%) 
 MO    22 (   16) HAS LZ(WEIGHT)=-2.00( 50.0%)  2.00( 50.0%) 
 MO    23 (   17) HAS LZ(WEIGHT)= 0.00(100.0%) 
 MO    24 (   18) HAS LZ(WEIGHT)=-1.00( 50.0%)  1.00( 50.0%) 
 MO    25 (   18) HAS LZ(WEIGHT)=-1.00( 50.0%)  1.00( 50.0%) 
 MO    26 (   19) HAS LZ(WEIGHT)= 0.00(100.0%) 
 MO    27 (   20) HAS LZ(WEIGHT)= 0.00(100.0%) 
 MO    28 (   21) HAS LZ(WEIGHT)=-2.00( 50.0%)  2.00( 50.0%) 
 MO    29 (   21) HAS LZ(WEIGHT)=-2.00( 50.0%)  2.00( 50.0%) 
 MO    30 (   22) HAS LZ(WEIGHT)=-1.00( 50.0%)  1.00( 50.0%) 
 MO    31 (   22) HAS LZ(WEIGHT)=-1.00( 50.0%)  1.00( 50.0%) 
 MO    32 (   23) HAS LZ(WEIGHT)= 0.00(100.0%) 
 MO    33 (   24) HAS LZ(WEIGHT)= 0.00(100.0%) 
 MO    34 (   25) HAS LZ(WEIGHT)= 0.00(100.0%) 

  ----- BETA SET ----- 

          ------------
          EIGENVECTORS
          ------------

                      1          2          3          4          5
                  -92.0416   -20.6287    -9.0449    -6.7313    -6.7154
                     A          A          A          A          A   
    1  O  1  S    0.000025   0.995231  -0.000170   0.000365   0.000000
    2  O  1  S    0.000068   0.019287   0.000446  -0.000793   0.000000
    3  O  1  X   -0.000000   0.000000  -0.000000   0.000000  -0.000010
    4  O  1  Y   -0.000000   0.000000  -0.000000   0.000000  -0.000014
    5  O  1  Z   -0.000052   0.001227   0.000311  -0.000786   0.000000
    6  O  1  S   -0.000014   0.002808  -0.001174   0.003177   0.000000
    7  O  1  X   -0.000000   0.000000  -0.000000   0.000000  -0.000031
    8  O  1  Y   -0.000000   0.000000  -0.000000   0.000000  -0.000043
    9  O  1  Z    0.000227  -0.000465  -0.001796   0.003297   0.000000
   10  O  1 XX    0.000069  -0.003512   0.000211  -0.000238   0.000000
   11  O  1 YY    0.000069  -0.003512   0.000211  -0.000238   0.000000
   12  O  1 ZZ   -0.000066  -0.003126  -0.000497  -0.000272   0.000000
   13  O  1 XY   -0.000000   0.000000  -0.000000   0.000000   0.000000
   14  O  1 XZ   -0.000000   0.000000  -0.000000   0.000000  -0.000235
   15  O  1 YZ   -0.000000   0.000000  -0.000000   0.000000  -0.000321
   16  S  2  S    0.996281   0.000014  -0.281849  -0.001728   0.000000
   17  S  2  S    0.014178  -0.000065   1.030667   0.006563   0.000000
   18  S  2  X   -0.000000   0.000000  -0.000000   0.000000   0.586113
   19  S  2  Y   -0.000000   0.000000  -0.000000   0.000000   0.802295
   20  S  2  Z   -0.000077   0.000032  -0.004829   0.992996   0.000000
   21  S  2  S   -0.019660   0.000452   0.022523  -0.005027   0.000000
   22  S  2  X   -0.000000   0.000000  -0.000000   0.000000   0.012607
   23  S  2  Y   -0.000000   0.000000  -0.000000   0.000000   0.017258
   24  S  2  Z    0.000101  -0.000275  -0.002382   0.023895   0.000000
   25  S  2  S    0.002266  -0.000027  -0.004777  -0.001342   0.000000
   26  S  2  X   -0.000000   0.000000  -0.000000   0.000000  -0.003083
   27  S  2  Y   -0.000000   0.000000  -0.000000   0.000000  -0.004220
   28  S  2  Z    0.000022   0.000047   0.000062  -0.004210   0.000000
   29  S  2 XX    0.006867  -0.000101  -0.001855   0.001725   0.000000
   30  S  2 YY    0.006867  -0.000101  -0.001855   0.001725   0.000000
   31  S  2 ZZ    0.006821  -0.000099   0.000246  -0.000762   0.000000
   32  S  2 XY   -0.000000   0.000000  -0.000000   0.000000   0.000000
   33  S  2 XZ   -0.000000   0.000000  -0.000000   0.000000  -0.000351
   34  S  2 YZ   -0.000000   0.000000  -0.000000   0.000000  -0.000480

                      6          7          8          9         10
                   -6.7154    -1.3316    -0.8076    -0.5676    -0.4731
                     A          A          A          A          A   
    1  O  1  S    0.000000  -0.191467   0.110215  -0.038952   0.000000
    2  O  1  S    0.000000   0.423331  -0.259829   0.081438   0.000000
    3  O  1  X   -0.000014   0.000000   0.000000   0.000000   0.366081
    4  O  1  Y    0.000010   0.000000   0.000000   0.000000  -0.222449
    5  O  1  Z    0.000000   0.120719   0.249649  -0.441882   0.000000
    6  O  1  S    0.000000   0.415380  -0.337458   0.179054   0.000000
    7  O  1  X   -0.000043   0.000000   0.000000   0.000000   0.323717
    8  O  1  Y    0.000031   0.000000   0.000000   0.000000  -0.196706
    9  O  1  Z    0.000000   0.062295   0.142055  -0.289731   0.000000
   10  O  1 XX    0.000000  -0.004825  -0.003617   0.001816   0.000000
   11  O  1 YY    0.000000  -0.004825  -0.003617   0.001816   0.000000
   12  O  1 ZZ    0.000000   0.036378   0.007749  -0.034669   0.000000
   13  O  1 XY    0.000000   0.000000   0.000000   0.000000   0.000000
   14  O  1 XZ   -0.000321   0.000000   0.000000   0.000000   0.041099
   15  O  1 YZ    0.000235   0.000000   0.000000   0.000000  -0.024974
   16  S  2  S    0.000000   0.032127   0.064025   0.025323   0.000000
   17  S  2  S    0.000000  -0.149823  -0.294101  -0.121066   0.000000
   18  S  2  X    0.802295   0.000000   0.000000   0.000000  -0.136228
   19  S  2  Y   -0.586113   0.000000   0.000000   0.000000   0.082779
   20  S  2  Z    0.000000   0.081357  -0.018106  -0.189851   0.000000
   21  S  2  S    0.000000   0.270186   0.637061   0.256970   0.000000
   22  S  2  X    0.017258   0.000000   0.000000   0.000000   0.345422
   23  S  2  Y   -0.012607   0.000000   0.000000   0.000000  -0.209895
   24  S  2  Z    0.000000  -0.165155   0.046563   0.488510   0.000000
   25  S  2  S    0.000000   0.036929   0.236405   0.281049   0.000000
   26  S  2  X   -0.004220   0.000000   0.000000   0.000000   0.180847
   27  S  2  Y    0.003083   0.000000   0.000000   0.000000  -0.109892
   28  S  2  Z    0.000000   0.017522   0.050613   0.098561   0.000000
   29  S  2 XX    0.000000  -0.025361  -0.013818   0.019855   0.000000
   30  S  2 YY    0.000000  -0.025361  -0.013818   0.019855   0.000000
   31  S  2 ZZ    0.000000   0.063508   0.023704  -0.060070   0.000000
   32  S  2 XY    0.000000   0.000000   0.000000   0.000000   0.000000
   33  S  2 XZ   -0.000480   0.000000   0.000000   0.000000  -0.069443
   34  S  2 YZ    0.000351   0.000000   0.000000   0.000000   0.042197

                     11         12         13         14         15
                   -0.4731     0.0440     0.0440     0.1840     0.4219
                     A          A          A          A          A   
    1  O  1  S    0.000000   0.000000   0.000000  -0.086608   0.011489
    2  O  1  S    0.000000   0.000000   0.000000   0.073936  -0.007837
    3  O  1  X    0.222449  -0.381466   0.019584   0.000000   0.000000
    4  O  1  Y    0.366081  -0.019584  -0.381466   0.000000   0.000000
    5  O  1  Z    0.000000   0.000000   0.000000   0.245686   0.105903
    6  O  1  S    0.000000   0.000000   0.000000   1.129419  -0.308699
    7  O  1  X    0.196706  -0.474012   0.024335   0.000000   0.000000
    8  O  1  Y    0.323717  -0.024335  -0.474012   0.000000   0.000000
    9  O  1  Z    0.000000   0.000000   0.000000   0.489287  -0.057760
   10  O  1 XX    0.000000   0.000000   0.000000  -0.053123   0.017749
   11  O  1 YY    0.000000   0.000000   0.000000  -0.053123   0.017749
   12  O  1 ZZ    0.000000   0.000000   0.000000  -0.023458  -0.027547
   13  O  1 XY    0.000000   0.000000   0.000000   0.000000   0.000000
   14  O  1 XZ    0.024974  -0.012583   0.000646   0.000000   0.000000
   15  O  1 YZ    0.041099  -0.000646  -0.012583   0.000000   0.000000
   16  S  2  S    0.000000   0.000000   0.000000  -0.014883  -0.067610
   17  S  2  S    0.000000   0.000000   0.000000   0.095060   0.097936
   18  S  2  X   -0.082779  -0.182237   0.009356   0.000000   0.000000
   19  S  2  Y   -0.136228  -0.009356  -0.182237   0.000000   0.000000
   20  S  2  Z    0.000000   0.000000   0.000000  -0.097307   0.067611
   21  S  2  S    0.000000   0.000000   0.000000  -0.078811  -1.473209
   22  S  2  X    0.209895   0.468894  -0.024072   0.000000   0.000000
   23  S  2  Y    0.345422   0.024072   0.468894   0.000000   0.000000
   24  S  2  Z    0.000000   0.000000   0.000000   0.259878  -0.294103
   25  S  2  S    0.000000   0.000000   0.000000  -0.816644   1.837322
   26  S  2  X    0.109892   0.542885  -0.027871   0.000000   0.000000
   27  S  2  Y    0.180847   0.027871   0.542885   0.000000   0.000000
   28  S  2  Z    0.000000   0.000000   0.000000   1.218797   0.150794
   29  S  2 XX    0.000000   0.000000   0.000000  -0.066397  -0.062118
   30  S  2 YY    0.000000   0.000000   0.000000  -0.066397  -0.062118
   31  S  2 ZZ    0.000000   0.000000   0.000000   0.135084  -0.072530
   32  S  2 XY    0.000000   0.000000   0.000000   0.000000   0.000000
   33  S  2 XZ   -0.042197   0.065583  -0.003367   0.000000   0.000000
   34  S  2 YZ   -0.069443   0.003367   0.065583   0.000000   0.000000

                     16         17         18         19         20
                    0.5230     0.5230     0.6045     1.0036     1.0036
                     A          A          A          A          A   
    1  O  1  S    0.000000  -0.000000  -0.012587   0.000000  -0.000000
    2  O  1  S    0.000000  -0.000000   0.154132   0.000000  -0.000000
    3  O  1  X   -0.002608   0.027284   0.000000   0.061889   0.409533
    4  O  1  Y    0.027284   0.002608   0.000000   0.409533  -0.061889
    5  O  1  Z    0.000000  -0.000000   0.349072   0.000000  -0.000000
    6  O  1  S    0.000000  -0.000000  -0.477538   0.000000  -0.000000
    7  O  1  X    0.007184  -0.075141   0.000000  -0.015919  -0.105336
    8  O  1  Y   -0.075141  -0.007184   0.000000  -0.105336   0.015919
    9  O  1  Z    0.000000  -0.000000   0.201581   0.000000  -0.000000
   10  O  1 XX    0.000000  -0.000000   0.061430   0.000000  -0.000000
   11  O  1 YY    0.000000  -0.000000   0.061430   0.000000  -0.000000
   12  O  1 ZZ    0.000000  -0.000000  -0.042689   0.000000  -0.000000
   13  O  1 XY    0.000000  -0.000000   0.000000   0.000000  -0.000000
   14  O  1 XZ    0.004737  -0.049552   0.000000  -0.023156  -0.153226
   15  O  1 YZ   -0.049552  -0.004737   0.000000  -0.153226   0.023156
   16  S  2  S    0.000000  -0.000000  -0.023285   0.000000  -0.000000
   17  S  2  S    0.000000  -0.000000   0.050949   0.000000  -0.000000
   18  S  2  X   -0.028871   0.301978   0.000000  -0.005233  -0.034628
   19  S  2  Y    0.301978   0.028871   0.000000  -0.034628   0.005233
   20  S  2  Z    0.000000  -0.000000  -0.314790   0.000000  -0.000000
   21  S  2  S    0.000000  -0.000000  -0.468251   0.000000  -0.000000
   22  S  2  X    0.115404  -1.207100   0.000000   0.022069   0.146033
   23  S  2  Y   -1.207100  -0.115404   0.000000   0.146033  -0.022069
   24  S  2  Z    0.000000  -0.000000   1.240537   0.000000  -0.000000
   25  S  2  S    0.000000  -0.000000   0.417841   0.000000  -0.000000
   26  S  2  X   -0.116981   1.223592   0.000000  -0.016780  -0.111034
   27  S  2  Y    1.223592   0.116981   0.000000  -0.111034   0.016780
   28  S  2  Z    0.000000  -0.000000  -1.163214   0.000000  -0.000000
   29  S  2 XX    0.000000  -0.000000  -0.098952   0.000000  -0.000000
   30  S  2 YY    0.000000  -0.000000  -0.098952   0.000000  -0.000000
   31  S  2 ZZ    0.000000  -0.000000   0.195210   0.000000  -0.000000
   32  S  2 XY    0.000000  -0.000000   0.000000   0.000000  -0.000000
   33  S  2 XZ   -0.006552   0.068529   0.000000   0.131707   0.871529
   34  S  2 YZ    0.068529   0.006552   0.000000   0.871529  -0.131707

                     21         22         23         24         25
                    1.0308     1.0308     1.0478     1.2931     1.2931
                     A          A          A          A          A   
    1  O  1  S    0.000000  -0.000000   0.014157  -0.000000   0.000000
    2  O  1  S    0.000000  -0.000000  -0.786057  -0.000000   0.000000
    3  O  1  X    0.000000  -0.000000   0.000000  -0.067873  -0.919367
    4  O  1  Y    0.000000  -0.000000   0.000000  -0.919367   0.067873
    5  O  1  Z    0.000000  -0.000000   0.470855  -0.000000   0.000000
    6  O  1  S    0.000000  -0.000000   1.095699  -0.000000   0.000000
    7  O  1  X    0.000000  -0.000000   0.000000   0.083464   1.130551
    8  O  1  Y    0.000000  -0.000000   0.000000   1.130551  -0.083464
    9  O  1  Z    0.000000  -0.000000  -0.984441  -0.000000   0.000000
   10  O  1 XX    0.000034  -0.066880  -0.282280  -0.000000   0.000000
   11  O  1 YY   -0.000034   0.066880  -0.282280  -0.000000   0.000000
   12  O  1 ZZ    0.000000  -0.000000  -0.248674  -0.000000   0.000000
   13  O  1 XY    0.077226   0.000039   0.000000  -0.000000   0.000000
   14  O  1 XZ    0.000000  -0.000000   0.000000  -0.010275  -0.139172
   15  O  1 YZ    0.000000  -0.000000   0.000000  -0.139172   0.010275
   16  S  2  S    0.000000  -0.000000   0.007266  -0.000000   0.000000
   17  S  2  S    0.000000  -0.000000   0.014297  -0.000000   0.000000
   18  S  2  X    0.000000  -0.000000   0.000000  -0.001157  -0.015670
   19  S  2  Y    0.000000  -0.000000   0.000000  -0.015670   0.001157
   20  S  2  Z    0.000000  -0.000000   0.066325  -0.000000   0.000000
   21  S  2  S    0.000000  -0.000000   0.191606  -0.000000   0.000000
   22  S  2  X    0.000000  -0.000000   0.000000   0.003630   0.049172
   23  S  2  Y    0.000000  -0.000000   0.000000   0.049172  -0.003630
   24  S  2  Z    0.000000  -0.000000  -0.378032  -0.000000   0.000000
   25  S  2  S    0.000000  -0.000000  -0.022381  -0.000000   0.000000
   26  S  2  X    0.000000  -0.000000   0.000000  -0.024711  -0.334723
   27  S  2  Y    0.000000  -0.000000   0.000000  -0.334723   0.024711
   28  S  2  Z    0.000000  -0.000000   0.125843  -0.000000   0.000000
   29  S  2 XX    0.000435  -0.860111  -0.204761  -0.000000   0.000000
   30  S  2 YY   -0.000435   0.860111  -0.204761  -0.000000   0.000000
   31  S  2 ZZ    0.000000  -0.000000   0.574910  -0.000000   0.000000
   32  S  2 XY    0.993171   0.000502   0.000000  -0.000000   0.000000
   33  S  2 XZ    0.000000  -0.000000   0.000000   0.025745   0.348718
   34  S  2 YZ    0.000000  -0.000000   0.000000   0.348718  -0.025745

                     26         27         28         29         30
                    1.4247     1.4585     2.1011     2.1011     2.3014
                     A          A          A          A          A   
    1  O  1  S   -0.087774  -0.070236  -0.000000   0.000000  -0.000000
    2  O  1  S   -0.613107  -1.348579  -0.000000   0.000000  -0.000000
    3  O  1  X   -0.000000   0.000000  -0.000000   0.000000  -0.122098
    4  O  1  Y   -0.000000   0.000000  -0.000000   0.000000  -0.016109
    5  O  1  Z    0.528599  -0.672103  -0.000000   0.000000  -0.000000
    6  O  1  S    2.177269   3.192797  -0.000000   0.000000  -0.000000
    7  O  1  X   -0.000000   0.000000  -0.000000   0.000000   0.259883
    8  O  1  Y   -0.000000   0.000000  -0.000000   0.000000   0.034287
    9  O  1  Z    0.253430   1.418626  -0.000000   0.000000  -0.000000
   10  O  1 XX   -0.168220  -0.315416  -0.000000   0.864521  -0.000000
   11  O  1 YY   -0.168220  -0.315416   0.000000  -0.864521  -0.000000
   12  O  1 ZZ   -0.375129  -0.578607  -0.000000   0.000000  -0.000000
   13  O  1 XY   -0.000000   0.000000   0.998262   0.000000  -0.000000
   14  O  1 XZ   -0.000000   0.000000  -0.000000   0.000000   1.020858
   15  O  1 YZ   -0.000000   0.000000  -0.000000   0.000000   0.134684
   16  S  2  S   -0.001618  -0.000718  -0.000000   0.000000  -0.000000
   17  S  2  S    0.049487  -0.036649  -0.000000   0.000000  -0.000000
   18  S  2  X   -0.000000   0.000000  -0.000000   0.000000   0.055565
   19  S  2  Y   -0.000000   0.000000  -0.000000   0.000000   0.007331
   20  S  2  Z   -0.065840  -0.021878  -0.000000   0.000000  -0.000000
   21  S  2  S    0.069843  -0.090095  -0.000000   0.000000  -0.000000
   22  S  2  X   -0.000000   0.000000  -0.000000   0.000000  -0.213449
   23  S  2  Y   -0.000000   0.000000  -0.000000   0.000000  -0.028161
   24  S  2  Z    0.286595   0.433838  -0.000000   0.000000  -0.000000
   25  S  2  S   -0.940719  -1.062349  -0.000000   0.000000  -0.000000
   26  S  2  X   -0.000000   0.000000  -0.000000   0.000000  -0.068457
   27  S  2  Y   -0.000000   0.000000  -0.000000   0.000000  -0.009032
   28  S  2  Z    0.699767   0.732085  -0.000000   0.000000  -0.000000
   29  S  2 XX    0.506686  -0.091475   0.000000  -0.109896  -0.000000
   30  S  2 YY    0.506686  -0.091475  -0.000000   0.109896  -0.000000
   31  S  2 ZZ   -0.906958  -0.025538  -0.000000   0.000000  -0.000000
   32  S  2 XY   -0.000000   0.000000  -0.126898  -0.000000  -0.000000
   33  S  2 XZ   -0.000000   0.000000  -0.000000   0.000000   0.480683
   34  S  2 YZ   -0.000000   0.000000  -0.000000   0.000000   0.063418

                     31         32         33         34
                    2.3014     2.9924     3.9217     4.3163
                     A          A          A          A   
    1  O  1  S    0.000000  -0.059992  -0.469239  -0.016405
    2  O  1  S    0.000000  -0.763873   0.279673  -0.167440
    3  O  1  X    0.016109   0.000000   0.000000  -0.000000
    4  O  1  Y   -0.122098   0.000000   0.000000  -0.000000
    5  O  1  Z    0.000000  -0.103785  -0.145739   0.068199
    6  O  1  S    0.000000   2.141377   3.694996   0.350474
    7  O  1  X   -0.034287   0.000000   0.000000  -0.000000
    8  O  1  Y    0.259883   0.000000   0.000000  -0.000000
    9  O  1  Z    0.000000   1.379501   0.513824   0.322847
   10  O  1 XX    0.000000  -0.750887  -1.600584  -0.130431
   11  O  1 YY    0.000000  -0.750887  -1.600584  -0.130431
   12  O  1 ZZ    0.000000   1.162617  -1.432126   0.356200
   13  O  1 XY    0.000000   0.000000   0.000000  -0.000000
   14  O  1 XZ   -0.134684   0.000000   0.000000  -0.000000
   15  O  1 YZ    1.020858   0.000000   0.000000  -0.000000
   16  S  2  S    0.000000  -0.039549   0.004269   0.164805
   17  S  2  S    0.000000   0.091439  -0.042488  -0.771429
   18  S  2  X   -0.007331   0.000000   0.000000  -0.000000
   19  S  2  Y    0.055565   0.000000   0.000000  -0.000000
   20  S  2  Z    0.000000  -0.197630   0.016519  -0.053947
   21  S  2  S    0.000000  -1.084022   0.003924   6.339361
   22  S  2  X    0.028161   0.000000   0.000000  -0.000000
   23  S  2  Y   -0.213449   0.000000   0.000000  -0.000000
   24  S  2  Z    0.000000   1.287556   0.087602   0.336137
   25  S  2  S    0.000000  -0.569091  -0.698394  -0.415437
   26  S  2  X    0.009032   0.000000   0.000000  -0.000000
   27  S  2  Y   -0.068457   0.000000   0.000000  -0.000000
   28  S  2  Z    0.000000   0.240079   0.525907   0.023889
   29  S  2 XX    0.000000   0.448787  -0.020089  -2.668707
   30  S  2 YY    0.000000   0.448787  -0.020089  -2.668707
   31  S  2 ZZ    0.000000  -0.680956   0.005189  -2.971018
   32  S  2 XY    0.000000   0.000000   0.000000  -0.000000
   33  S  2 XZ   -0.063418   0.000000   0.000000  -0.000000
   34  S  2 YZ    0.480683   0.000000   0.000000  -0.000000
 ...... END OF UHF CALCULATION ......
 STEP CPU TIME =     0.01 TOTAL CPU TIME =          0.0 (      0.0 MIN)
 TOTAL WALL CLOCK TIME=          0.0 SECONDS, CPU UTILIZATION IS    97.84%

     ----------------------------------------------------------------
     PROPERTY VALUES FOR THE UHF   SELF-CONSISTENT FIELD WAVEFUNCTION
     ----------------------------------------------------------------

          -----------------
          ENERGY COMPONENTS
          -----------------

         WAVEFUNCTION NORMALIZATION =       1.0000000000

                ONE ELECTRON ENERGY =    -740.6707293251
                TWO ELECTRON ENERGY =     223.9417879651
           NUCLEAR REPULSION ENERGY =      44.4050458884
                                      ------------------
                       TOTAL ENERGY =    -472.3238954716

 ELECTRON-ELECTRON POTENTIAL ENERGY =     223.9417879651
  NUCLEUS-ELECTRON POTENTIAL ENERGY =   -1212.4159218930
   NUCLEUS-NUCLEUS POTENTIAL ENERGY =      44.4050458884
                                      ------------------
             TOTAL POTENTIAL ENERGY =    -944.0690880395
               TOTAL KINETIC ENERGY =     471.7451925679
                 VIRIAL RATIO (V/T) =       2.0012267277

  ...... PI ENERGY ANALYSIS ......

 ENERGY ANALYSIS:
            FOCK ENERGY=   -292.7871531164
          BARE H ENERGY=   -740.6707293251
     ELECTRONIC ENERGY =   -516.7289412207
         KINETIC ENERGY=    471.7451925679
          N-N REPULSION=     44.4050458884
           TOTAL ENERGY=   -472.3238953324
        SIGMA PART(1+2)=   -402.6006097212
               (K,V1,2)=    388.8364876434   -931.3289011613    139.8918037968
           PI PART(1+2)=   -114.1283314995
               (K,V1,2)=     82.9087049245   -281.0870207316     84.0499843076
  SIGMA SKELETON, ERROR=   -358.1955638329      0.0000000000
             MIXED PART= 0.00000E+00 0.00000E+00 0.00000E+00 0.00000E+00
 ...... END OF PI ENERGY ANALYSIS ......

          ---------------------------------------
          MULLIKEN AND LOWDIN POPULATION ANALYSES
          ---------------------------------------

     ATOMIC MULLIKEN POPULATION IN EACH MOLECULAR ORBITAL
        ALPHA ORBITALS

                      1          2          3          4          5

                  1.000000   1.000000   1.000000   1.000000   1.000000

    1             0.000004   1.000012  -0.000385  -0.000008  -0.000008
    2             0.999996  -0.000012   1.000385   1.000008   1.000008

                      6          7          8          9         10

                  1.000000   1.000000   1.000000   1.000000   1.000000

    1            -0.000376   0.831665   0.243656   0.791614   0.791614
    2             1.000376   0.168335   0.756344   0.208386   0.208386

                     11         12         13

                  1.000000   1.000000   1.000000

    1             0.587946   0.189973   0.189973
    2             0.412054   0.810027   0.810027

     ATOMIC MULLIKEN POPULATION IN EACH MOLECULAR ORBITAL
         BETA ORBITALS

                      1          2          3          4          5

                  1.000000   1.000000   1.000000   1.000000   1.000000

    1             0.000004   0.999991  -0.000376  -0.000341  -0.000007
    2             0.999996   0.000009   1.000376   1.000341   1.000007

                      6          7          8          9         10

                  1.000000   1.000000   1.000000   1.000000   1.000000

    1            -0.000007   0.766491   0.388804   0.470238   0.594114
    2             1.000007   0.233509   0.611196   0.529762   0.405886

                     11

                  1.000000

    1             0.594114
    2             0.405886

     ATOMIC SPIN POPULATION (ALPHA MINUS BETA)
       ATOM         MULL.POP.                    LOW.POP.
    1 O             0.812652                     0.845862
    2 S             1.187348                     1.154138


          ********* ALL ELECTRONS ********

               ----- POPULATIONS IN EACH AO -----
                             MULLIKEN      LOWDIN
              1  O  1  S      1.99575     1.97859
              2  O  1  S      0.95711     0.76543
              3  O  1  X      0.92389     0.89757
              4  O  1  Y      0.92389     0.89757
              5  O  1  Z      0.87033     0.82841
              6  O  1  S      0.93428     0.51196
              7  O  1  X      0.64225     0.66791
              8  O  1  Y      0.64225     0.66791
              9  O  1  Z      0.48647     0.60314
             10  O  1 XX      0.00448     0.18290
             11  O  1 YY      0.00448     0.18290
             12  O  1 ZZ      0.03443     0.21056
             13  O  1 XY      0.00000     0.00000
             14  O  1 XZ      0.00954     0.01527
             15  O  1 YZ      0.00954     0.01527
             16  S  2  S      1.99892     1.99863
             17  S  2  S      1.99903     1.98302
             18  S  2  X      1.99285     1.96677
             19  S  2  Y      1.99285     1.96677
             20  S  2  Z      1.99102     1.95887
             21  S  2  S      1.35465     0.61109
             22  S  2  X      0.96410     0.89796
             23  S  2  Y      0.96410     0.89796
             24  S  2  Z      0.73141     0.66727
             25  S  2  S      0.52705     0.51098
             26  S  2  X      0.43479     0.51514
             27  S  2  Y      0.43479     0.51514
             28  S  2  Z      0.04871     0.21632
             29  S  2 XX      0.00459     0.25571
             30  S  2 YY      0.00459     0.25571
             31  S  2 ZZ      0.05270     0.27851
             32  S  2 XY      0.00000     0.00000
             33  S  2 XZ      0.03258     0.03938
             34  S  2 YZ      0.03258     0.03938

          ----- MULLIKEN ATOMIC OVERLAP POPULATIONS -----
          (OFF-DIAGONAL ELEMENTS NEED TO BE MULTIPLIED BY 2)

             1           2

    1    8.1824593
    2    0.2562483  15.3050441

          TOTAL MULLIKEN AND LOWDIN ATOMIC POPULATIONS
       ATOM         MULL.POP.    CHARGE          LOW.POP.     CHARGE
    1 O             8.438708   -0.438708         8.425406   -0.425406
    2 S            15.561292    0.438708        15.574594    0.425406

          -------------------------------
          BOND ORDER AND VALENCE ANALYSIS     BOND ORDER THRESHOLD=0.050
          -------------------------------

                   BOND                       BOND                       BOND
  ATOM PAIR DIST  ORDER      ATOM PAIR DIST  ORDER      ATOM PAIR DIST  ORDER
    1   2  1.525  1.803

                       TOTAL       BONDED        FREE
      ATOM            VALENCE     VALENCE     VALENCE
    1 O                 2.200       1.803       0.397
    2 S                 2.655       1.803       0.852

          -----------------------------------------
          ATOMIC SPIN DENSITY AT THE NUCLEUS (A.U.)
          -----------------------------------------
                            SPIN DENS    ALPHA DENS     BETA DENS
    1  O            8.0     0.2712208     145.68848     145.41726
    2  S           16.0     0.2665934    1252.69508    1252.42849

          ---------------------
          ELECTROSTATIC MOMENTS
          ---------------------

 POINT   1           X           Y           Z (BOHR)    CHARGE
                 0.000000    0.000000    0.008641       -0.00 (A.U.)
         DX          DY          DZ         /D/  (DEBYE)
     0.000000    0.000000    1.944921    1.944921
 ...... END OF PROPERTY EVALUATION ......
 STEP CPU TIME =     0.00 TOTAL CPU TIME =          0.0 (      0.0 MIN)
 TOTAL WALL CLOCK TIME=          0.0 SECONDS, CPU UTILIZATION IS    97.97%

 BEGINNING ONE ELECTRON GRADIENT...
 ..... END OF 1-ELECTRON GRADIENT ......
 STEP CPU TIME =     0.00 TOTAL CPU TIME =          0.0 (      0.0 MIN)
 TOTAL WALL CLOCK TIME=          0.0 SECONDS, CPU UTILIZATION IS    98.02%

          ----------------------
          GRADIENT OF THE ENERGY
          ----------------------

 THE MINIMUM MEMORY REQUIRED FOR THIS RUN IS      75631 WORDS.
 USING     990181 WORDS FOR 2E- DERIVATIVE INTEGRAL CONTRIBUTIONS.
 THE COARSE/FINE SCHWARZ SCREENINGS SKIPPED            0/           0 BLOCKS.
 THE NUMBER OF GRADIENT INTEGRAL BLOCKS COMPUTED WAS       860
 ...... END OF 2-ELECTRON GRADIENT ......
 STEP CPU TIME =     0.02 TOTAL CPU TIME =          0.0 (      0.0 MIN)
 TOTAL WALL CLOCK TIME=          0.0 SECONDS, CPU UTILIZATION IS    99.01%

          NSERCH=  0     ENERGY=    -472.3238955

                                 -----------------------
                                 GRADIENT (HARTREE/BOHR)
                                 -----------------------
        ATOM     ZNUC       DE/DX         DE/DY         DE/DZ
 --------------------------------------------------------------
    1  O            8.0     0.0000000     0.0000000    -0.0659814
    2  S           16.0     0.0000000     0.0000000     0.0659814

          MAXIMUM GRADIENT = 0.0659814    RMS GRADIENT = 0.0380944

 NSERCH:   0  E=     -472.3238954716  GRAD. MAX=  0.0659814  R.M.S.=  0.0380944

          FORCE CONSTANT MATRIX NOT UPDATED --- TAKING FIRST STEP
          MIN SEARCH, CORRECT HESSIAN, TRYING PURE NR STEP
               NR STEP HAS LENGTH         =   0.092270
          RADIUS OF STEP TAKEN=   0.09227  CURRENT TRUST RADIUS=   0.30000

 BEGINNING GEOMETRY SEARCH POINT NSERCH=   1 ...

 COORDINATES OF ALL ATOMS ARE (ANGS)
   ATOM   CHARGE       X              Y              Z
 ------------------------------------------------------------
 O           8.0   0.0000000000   0.0000000000  -0.9776349004
 S          16.0   0.0000000000   0.0000000000   0.4786959004

          INTERNUCLEAR DISTANCES (ANGS.)
          ------------------------------

                1 O          2 S     

   1 O       0.0000000    1.4563308 *
   2 S       1.4563308 *  0.0000000  

  * ... LESS THAN  3.000

 ...... END OF ONE-ELECTRON INTEGRALS ......
 STEP CPU TIME =     0.00 TOTAL CPU TIME =          0.0 (      0.0 MIN)
 TOTAL WALL CLOCK TIME=          0.0 SECONDS, CPU UTILIZATION IS    99.01%
 TOTAL NUMBER OF NONZERO TWO-ELECTRON INTEGRALS =               46313
          4 INTEGRAL RECORDS WERE STORED ON DISK FILE  8.
  ...... END OF TWO-ELECTRON INTEGRALS .....
 STEP CPU TIME =     0.00 TOTAL CPU TIME =          0.0 (      0.0 MIN)
 TOTAL WALL CLOCK TIME=          0.1 SECONDS, CPU UTILIZATION IS    99.02%

          ---------------------------
                  UHF SCF CALCULATION
          ---------------------------
     DENSITY MATRIX CONV=  2.00E-04

 ITER EX      TOTAL ENERGY        E CHANGE  DENSITY CHANGE    ORB. GRAD 
          ---------------START SECOND ORDER SCF---------------
   1  0     -472.3246870478  -472.3246870478   0.027006240   0.017024970
   2  1     -472.3271029784    -0.0024159306   0.018780073   0.009633603
   3  2     -472.3275491344    -0.0004461561   0.005631297   0.002929976
   4  3     -472.3276444414    -0.0000953070   0.003534604   0.000827197
   5  4     -472.3276632788    -0.0000188374   0.003267766   0.000651679
   6  5     -472.3276731953    -0.0000099165   0.001169188   0.000337922
   7  6     -472.3276745114    -0.0000013161   0.000761340   0.000126780
   8  7     -472.3276747922    -0.0000002808   0.000196258   0.000048713
   9  8     -472.3276748117    -0.0000000195   0.000044242   0.000019425
  10  9     -472.3276748141    -0.0000000024   0.000015822   0.000005715

          -----------------
          DENSITY CONVERGED
          -----------------
     TIME TO FORM FOCK OPERATORS=       0.0 SECONDS (       0.0 SEC/ITER)
     TIME TO SOLVE SCF EQUATIONS=       0.0 SECONDS (       0.0 SEC/ITER)

 FINAL UHF ENERGY IS     -472.3276748141 AFTER  10 ITERATIONS

          --------------------
          SPIN SZ   =    1.000
          S-SQUARED =    2.035
          --------------------

 LZ VALUE ANALYSIS FOR THE MOS
 ----------------------------------------
 MO     1 (    1) HAS LZ(WEIGHT)= 0.00(100.0%) 
 MO     2 (    2) HAS LZ(WEIGHT)= 0.00(100.0%) 
 MO     3 (    3) HAS LZ(WEIGHT)= 0.00(100.0%) 
 MO     4 (    4) HAS LZ(WEIGHT)=-1.00( 50.0%)  1.00( 50.0%) 
 MO     5 (    4) HAS LZ(WEIGHT)=-1.00( 50.0%)  1.00( 50.0%) 
 MO     6 (    5) HAS LZ(WEIGHT)= 0.00(100.0%) 
 MO     7 (    6) HAS LZ(WEIGHT)= 0.00(100.0%) 
 MO     8 (    7) HAS LZ(WEIGHT)= 0.00(100.0%) 
 MO     9 (    8) HAS LZ(WEIGHT)=-1.00( 50.0%)  1.00( 50.0%) 
 MO    10 (    8) HAS LZ(WEIGHT)=-1.00( 50.0%)  1.00( 50.0%) 
 MO    11 (    9) HAS LZ(WEIGHT)= 0.00(100.0%) 
 MO    12 (   10) HAS LZ(WEIGHT)=-1.00( 50.0%)  1.00( 50.0%) 
 MO    13 (   10) HAS LZ(WEIGHT)=-1.00( 50.0%)  1.00( 50.0%) 
 MO    14 (   11) HAS LZ(WEIGHT)= 0.00(100.0%) 
 MO    15 (   12) HAS LZ(WEIGHT)= 0.00(100.0%) 
 MO    16 (   13) HAS LZ(WEIGHT)=-1.00( 50.0%)  1.00( 50.0%) 
 MO    17 (   13) HAS LZ(WEIGHT)=-1.00( 50.0%)  1.00( 50.0%) 
 MO    18 (   14) HAS LZ(WEIGHT)= 0.00(100.0%) 
 MO    19 (   15) HAS LZ(WEIGHT)=-2.00( 50.0%)  2.00( 50.0%) 
 MO    20 (   15) HAS LZ(WEIGHT)=-2.00( 50.0%)  2.00( 50.0%) 
 MO    21 (   16) HAS LZ(WEIGHT)=-1.00( 50.0%)  1.00( 50.0%) 
 MO    22 (   16) HAS LZ(WEIGHT)=-1.00( 50.0%)  1.00( 50.0%) 
 MO    23 (   17) HAS LZ(WEIGHT)= 0.00(100.0%) 
 MO    24 (   18) HAS LZ(WEIGHT)=-1.00( 50.0%)  1.00( 50.0%) 
 MO    25 (   18) HAS LZ(WEIGHT)=-1.00( 50.0%)  1.00( 50.0%) 
 MO    26 (   19) HAS LZ(WEIGHT)= 0.00(100.0%) 
 MO    27 (   20) HAS LZ(WEIGHT)= 0.00(100.0%) 
 MO    28 (   21) HAS LZ(WEIGHT)=-2.00( 50.0%)  2.00( 50.0%) 
 MO    29 (   21) HAS LZ(WEIGHT)=-2.00( 50.0%)  2.00( 50.0%) 
 MO    30 (   22) HAS LZ(WEIGHT)=-1.00( 50.0%)  1.00( 50.0%) 
 MO    31 (   22) HAS LZ(WEIGHT)=-1.00( 50.0%)  1.00( 50.0%) 
 MO    32 (   23) HAS LZ(WEIGHT)= 0.00(100.0%) 
 MO    33 (   24) HAS LZ(WEIGHT)= 0.00(100.0%) 
 MO    34 (   25) HAS LZ(WEIGHT)= 0.00(100.0%) 

 LZ VALUE ANALYSIS FOR THE MOS
 ----------------------------------------
 MO     1 (    1) HAS LZ(WEIGHT)= 0.00(100.0%) 
 MO     2 (    2) HAS LZ(WEIGHT)= 0.00(100.0%) 
 MO     3 (    3) HAS LZ(WEIGHT)= 0.00(100.0%) 
 MO     4 (    4) HAS LZ(WEIGHT)= 0.00(100.0%) 
 MO     5 (    5) HAS LZ(WEIGHT)=-1.00( 50.0%)  1.00( 50.0%) 
 MO     6 (    5) HAS LZ(WEIGHT)=-1.00( 50.0%)  1.00( 50.0%) 
 MO     7 (    6) HAS LZ(WEIGHT)= 0.00(100.0%) 
 MO     8 (    7) HAS LZ(WEIGHT)= 0.00(100.0%) 
 MO     9 (    8) HAS LZ(WEIGHT)= 0.00(100.0%) 
 MO    10 (    9) HAS LZ(WEIGHT)=-1.00( 50.0%)  1.00( 50.0%) 
 MO    11 (    9) HAS LZ(WEIGHT)=-1.00( 50.0%)  1.00( 50.0%) 
 MO    12 (   10) HAS LZ(WEIGHT)=-1.00( 50.0%)  1.00( 50.0%) 
 MO    13 (   10) HAS LZ(WEIGHT)=-1.00( 50.0%)  1.00( 50.0%) 
 MO    14 (   11) HAS LZ(WEIGHT)= 0.00(100.0%) 
 MO    15 (   12) HAS LZ(WEIGHT)= 0.00(100.0%) 
 MO    16 (   13) HAS LZ(WEIGHT)=-1.00( 50.0%)  1.00( 50.0%) 
 MO    17 (   13) HAS LZ(WEIGHT)=-1.00( 50.0%)  1.00( 50.0%) 
 MO    18 (   14) HAS LZ(WEIGHT)= 0.00(100.0%) 
 MO    19 (   15) HAS LZ(WEIGHT)=-1.00( 50.0%)  1.00( 50.0%) 
 MO    20 (   15) HAS LZ(WEIGHT)=-1.00( 50.0%)  1.00( 50.0%) 
 MO    21 (   16) HAS LZ(WEIGHT)=-2.00( 50.0%)  2.00( 50.0%) 
 MO    22 (   16) HAS LZ(WEIGHT)=-2.00( 50.0%)  2.00( 50.0%) 
 MO    23 (   17) HAS LZ(WEIGHT)= 0.00(100.0%) 
 MO    24 (   18) HAS LZ(WEIGHT)=-1.00( 50.0%)  1.00( 50.0%) 
 MO    25 (   18) HAS LZ(WEIGHT)=-1.00( 50.0%)  1.00( 50.0%) 
 MO    26 (   19) HAS LZ(WEIGHT)= 0.00(100.0%) 
 MO    27 (   20) HAS LZ(WEIGHT)= 0.00(100.0%) 
 MO    28 (   21) HAS LZ(WEIGHT)=-2.00( 50.0%)  2.00( 50.0%) 
 MO    29 (   21) HAS LZ(WEIGHT)=-2.00( 50.0%)  2.00( 50.0%) 
 MO    30 (   22) HAS LZ(WEIGHT)=-1.00( 50.0%)  1.00( 50.0%) 
 MO    31 (   22) HAS LZ(WEIGHT)=-1.00( 50.0%)  1.00( 50.0%) 
 MO    32 (   23) HAS LZ(WEIGHT)= 0.00(100.0%) 
 MO    33 (   24) HAS LZ(WEIGHT)= 0.00(100.0%) 
 MO    34 (   25) HAS LZ(WEIGHT)= 0.00(100.0%) 
 ...... END OF UHF CALCULATION ......
 STEP CPU TIME =     0.01 TOTAL CPU TIME =          0.1 (      0.0 MIN)
 TOTAL WALL CLOCK TIME=          0.1 SECONDS, CPU UTILIZATION IS    99.09%
 ..... END OF 1-ELECTRON GRADIENT ......
 STEP CPU TIME =     0.00 TOTAL CPU TIME =          0.1 (      0.0 MIN)
 TOTAL WALL CLOCK TIME=          0.1 SECONDS, CPU UTILIZATION IS    99.09%
 ...... END OF 2-ELECTRON GRADIENT ......
 STEP CPU TIME =     0.02 TOTAL CPU TIME =          0.1 (      0.0 MIN)
 TOTAL WALL CLOCK TIME=          0.1 SECONDS, CPU UTILIZATION IS    99.36%

          NSERCH=  1     ENERGY=    -472.3276748

                                 -----------------------
                                 GRADIENT (HARTREE/BOHR)
                                 -----------------------
        ATOM     ZNUC       DE/DX         DE/DY         DE/DZ
 --------------------------------------------------------------
    1  O            8.0     0.0000000     0.0000000     0.0135112
    2  S           16.0     0.0000000     0.0000000    -0.0135112

          MAXIMUM GRADIENT = 0.0135112    RMS GRADIENT = 0.0078007

 NSERCH:   1  E=     -472.3276748141  GRAD. MAX=  0.0135112  R.M.S.=  0.0078007

          HESSIAN UPDATED USING THE BFGS FORMULA
             ACTUAL ENERGY CHANGE WAS  -0.0037793425
          PREDICTED ENERGY CHANGE WAS  -0.0043049261 RATIO=  0.878
          MIN SEARCH, CORRECT HESSIAN, TRYING PURE NR STEP
               NR STEP HAS LENGTH         =   0.015683
          RADIUS OF STEP TAKEN=   0.01568  CURRENT TRUST RADIUS=   0.13049

 BEGINNING GEOMETRY SEARCH POINT NSERCH=   2 ...

 COORDINATES OF ALL ATOMS ARE (ANGS)
   ATOM   CHARGE       X              Y              Z
 ------------------------------------------------------------
 O           8.0   0.0000000000   0.0000000000  -0.9835032102
 S          16.0   0.0000000000   0.0000000000   0.4845642102

          INTERNUCLEAR DISTANCES (ANGS.)
          ------------------------------

                1 O          2 S     

   1 O       0.0000000    1.4680674 *
   2 S       1.4680674 *  0.0000000  

  * ... LESS THAN  3.000

 ...... END OF ONE-ELECTRON INTEGRALS ......
 STEP CPU TIME =     0.00 TOTAL CPU TIME =          0.1 (      0.0 MIN)
 TOTAL WALL CLOCK TIME=          0.1 SECONDS, CPU UTILIZATION IS    99.36%
 TOTAL NUMBER OF NONZERO TWO-ELECTRON INTEGRALS =               46302
          4 INTEGRAL RECORDS WERE STORED ON DISK FILE  8.
  ...... END OF TWO-ELECTRON INTEGRALS .....
 STEP CPU TIME =     0.00 TOTAL CPU TIME =          0.1 (      0.0 MIN)
 TOTAL WALL CLOCK TIME=          0.1 SECONDS, CPU UTILIZATION IS    99.35%

          ---------------------------
                  UHF SCF CALCULATION
          ---------------------------
     DENSITY MATRIX CONV=  5.00E-05

 ITER EX      TOTAL ENERGY        E CHANGE  DENSITY CHANGE    ORB. GRAD 
          ---------------START SECOND ORDER SCF---------------
   1  0     -472.3277038991  -472.3277038991   0.004806778   0.003139390
   2  1     -472.3277791989    -0.0000752998   0.002812751   0.001568624
   3  2     -472.3277928536    -0.0000136547   0.000905271   0.000549280
   4  3     -472.3277951293    -0.0000022758   0.000600246   0.000170795
   5  4     -472.3277956557    -0.0000005263   0.000535319   0.000111283
   6  5     -472.3277959428    -0.0000002872   0.000251437   0.000071161
   7  6     -472.3277959982    -0.0000000554   0.000160294   0.000026529
   8  7     -472.3277960111    -0.0000000129   0.000045698   0.000009693
   9  8     -472.3277960121    -0.0000000010   0.000010416   0.000004087

          -----------------
          DENSITY CONVERGED
          -----------------
     TIME TO FORM FOCK OPERATORS=       0.0 SECONDS (       0.0 SEC/ITER)
     TIME TO SOLVE SCF EQUATIONS=       0.0 SECONDS (       0.0 SEC/ITER)

 FINAL UHF ENERGY IS     -472.3277960121 AFTER   9 ITERATIONS

          --------------------
          SPIN SZ   =    1.000
          S-SQUARED =    2.036
          --------------------

 LZ VALUE ANALYSIS FOR THE MOS
 ----------------------------------------
 MO     1 (    1) HAS LZ(WEIGHT)= 0.00(100.0%) 
[...]
   12  O  1 ZZ    0.000066  -0.003129   0.000385  -0.000729   0.000000
   13  O  1 XY    0.000000   0.000000   0.000000   0.000000   0.000000
   14  O  1 XZ    0.000000   0.000000   0.000000   0.000000   0.000095
   15  O  1 YZ    0.000000   0.000000   0.000000   0.000000  -0.000362
   16  S  2  S   -0.996280   0.000015   0.281829  -0.001870   0.000000
   17  S  2  S   -0.014180  -0.000071  -1.030618   0.007055   0.000000
   18  S  2  X    0.000000   0.000000   0.000000   0.000000  -0.253560
   19  S  2  Y    0.000000   0.000000   0.000000   0.000000   0.960642
   20  S  2  Z    0.000079   0.000005   0.005146   0.992918   0.000000
   21  S  2  S    0.019681   0.000576  -0.023048  -0.005619   0.000000
   22  S  2  X    0.000000   0.000000   0.000000   0.000000  -0.005491
   23  S  2  Y    0.000000   0.000000   0.000000   0.000000   0.020802
   24  S  2  Z   -0.000112  -0.000169   0.002751   0.024147   0.000000
   25  S  2  S   -0.002251  -0.000126   0.004667  -0.001555   0.000000
   26  S  2  X    0.000000   0.000000   0.000000   0.000000   0.001340
   27  S  2  Y    0.000000   0.000000   0.000000   0.000000  -0.005077
   28  S  2  Z   -0.000033   0.000100  -0.000006  -0.004049   0.000000
   29  S  2 XX   -0.006870  -0.000125   0.001985   0.001868   0.000000
   30  S  2 YY   -0.006870  -0.000125   0.001985   0.001868   0.000000
   31  S  2 ZZ   -0.006824  -0.000277  -0.000303  -0.000811   0.000000
   32  S  2 XY    0.000000   0.000000   0.000000   0.000000   0.000000
   33  S  2 XZ    0.000000   0.000000   0.000000   0.000000   0.000179
   34  S  2 YZ    0.000000   0.000000   0.000000   0.000000  -0.000680

                      6          7          8          9         10
                   -6.7128    -1.3644    -0.7985    -0.5733    -0.4946
                     A          A          A          A          A   
    1  O  1  S    0.000000   0.189401  -0.113134   0.037829   0.000000
    2  O  1  S    0.000000  -0.418412   0.265777  -0.074832   0.000000
    3  O  1  X   -0.000011   0.000000   0.000000   0.000000  -0.381246
    4  O  1  Y   -0.000003   0.000000   0.000000   0.000000  -0.217668
    5  O  1  Z    0.000000  -0.136614  -0.269239   0.439016   0.000000
    6  O  1  S    0.000000  -0.390501   0.354303  -0.188405   0.000000
    7  O  1  X    0.000125   0.000000   0.000000   0.000000  -0.329500
    8  O  1  Y    0.000033   0.000000   0.000000   0.000000  -0.188124
    9  O  1  Z    0.000000  -0.058234  -0.149485   0.273637   0.000000
   10  O  1 XX    0.000000   0.004006   0.004196  -0.001412   0.000000
   11  O  1 YY    0.000000   0.004006   0.004196  -0.001412   0.000000
   12  O  1 ZZ    0.000000  -0.037117  -0.008400   0.034234   0.000000
   13  O  1 XY    0.000000   0.000000   0.000000   0.000000   0.000000
   14  O  1 XZ    0.000362   0.000000   0.000000   0.000000  -0.044645
   15  O  1 YZ    0.000095   0.000000   0.000000   0.000000  -0.025489
   16  S  2  S    0.000000  -0.033764  -0.062417  -0.026722   0.000000
   17  S  2  S    0.000000   0.157628   0.286432   0.127831   0.000000
   18  S  2  X   -0.960642   0.000000   0.000000   0.000000   0.136950
   19  S  2  Y   -0.253560   0.000000   0.000000   0.000000   0.078190
   20  S  2  Z    0.000000  -0.090067   0.018417   0.191858   0.000000
   21  S  2  S    0.000000  -0.282113  -0.623209  -0.267447   0.000000
   22  S  2  X   -0.020802   0.000000   0.000000   0.000000  -0.345187
   23  S  2  Y   -0.005491   0.000000   0.000000   0.000000  -0.197080
   24  S  2  Z    0.000000   0.181073  -0.046500  -0.492830   0.000000
   25  S  2  S    0.000000  -0.032579  -0.225406  -0.297638   0.000000
   26  S  2  X    0.005077   0.000000   0.000000   0.000000  -0.163634
   27  S  2  Y    0.001340   0.000000   0.000000   0.000000  -0.093425
   28  S  2  Z    0.000000  -0.019867  -0.054549  -0.092506   0.000000
   29  S  2 XX    0.000000   0.029281   0.014174  -0.022592   0.000000
   30  S  2 YY    0.000000   0.029281   0.014174  -0.022592   0.000000
   31  S  2 ZZ    0.000000  -0.069371  -0.023376   0.060529   0.000000
   32  S  2 XY    0.000000   0.000000   0.000000   0.000000   0.000000
   33  S  2 XZ    0.000680   0.000000   0.000000   0.000000   0.075949
   34  S  2 YZ    0.000179   0.000000   0.000000   0.000000   0.043362

                     11         12         13         14         15
                   -0.4946     0.0550     0.0550     0.1939     0.4259
                     A          A          A          A          A   
    1  O  1  S    0.000000   0.000000   0.000000   0.089370  -0.009983
    2  O  1  S    0.000000   0.000000   0.000000  -0.068295   0.004610
    3  O  1  X   -0.217668  -0.282756  -0.242391   0.000000   0.000000
    4  O  1  Y    0.381246   0.242391  -0.282756   0.000000   0.000000
    5  O  1  Z    0.000000   0.000000   0.000000  -0.213641  -0.104984
    6  O  1  S    0.000000   0.000000   0.000000  -1.226228   0.289267
    7  O  1  X   -0.188124  -0.361337  -0.309754   0.000000   0.000000
    8  O  1  Y    0.329500   0.309754  -0.361337   0.000000   0.000000
    9  O  1  Z    0.000000   0.000000   0.000000  -0.457637   0.050891
   10  O  1 XX    0.000000   0.000000   0.000000   0.058203  -0.016383
   11  O  1 YY    0.000000   0.000000   0.000000   0.058203  -0.016383
   12  O  1 ZZ    0.000000   0.000000   0.000000   0.026572   0.024978
   13  O  1 XY    0.000000   0.000000   0.000000   0.000000   0.000000
   14  O  1 XZ   -0.025489  -0.010364  -0.008885   0.000000   0.000000
   15  O  1 YZ    0.044645   0.008885  -0.010364   0.000000   0.000000
   16  S  2  S    0.000000   0.000000   0.000000   0.012729   0.066951
   17  S  2  S    0.000000   0.000000   0.000000  -0.086989  -0.099515
   18  S  2  X    0.078190  -0.138062  -0.118352   0.000000   0.000000
   19  S  2  Y   -0.136950   0.118352  -0.138062   0.000000   0.000000
   20  S  2  Z    0.000000   0.000000   0.000000   0.084742  -0.080864
   21  S  2  S    0.000000   0.000000   0.000000   0.047333   1.450987
   22  S  2  X   -0.197080   0.354728   0.304088   0.000000   0.000000
   23  S  2  Y    0.345187  -0.304088   0.354728   0.000000   0.000000
   24  S  2  Z    0.000000   0.000000   0.000000  -0.234061   0.352517
   25  S  2  S    0.000000   0.000000   0.000000   0.909000  -1.804411
   26  S  2  X   -0.093425   0.436454   0.374147   0.000000   0.000000
   27  S  2  Y    0.163634  -0.374147   0.436454   0.000000   0.000000
   28  S  2  Z    0.000000   0.000000   0.000000  -1.275143  -0.226703
   29  S  2 XX    0.000000   0.000000   0.000000   0.068754   0.065502
   30  S  2 YY    0.000000   0.000000   0.000000   0.068754   0.065502
   31  S  2 ZZ    0.000000   0.000000   0.000000  -0.137220   0.061453
   32  S  2 XY    0.000000   0.000000   0.000000   0.000000   0.000000
   33  S  2 XZ    0.043362   0.053012   0.045444   0.000000   0.000000
   34  S  2 YZ   -0.075949  -0.045444   0.053012   0.000000   0.000000

                     16         17         18         19         20
                    0.5219     0.5219     0.6400     1.0228     1.0228
                     A          A          A          A          A   
    1  O  1  S    0.000000   0.000000   0.015362   0.000000   0.000000
    2  O  1  S    0.000000   0.000000  -0.161589   0.000000   0.000000
    3  O  1  X   -0.034958  -0.013562   0.000000   0.372164  -0.162668
    4  O  1  Y    0.013562  -0.034958   0.000000  -0.162668  -0.372164
    5  O  1  Z    0.000000   0.000000  -0.362089   0.000000   0.000000
    6  O  1  S    0.000000   0.000000   0.443349   0.000000   0.000000
    7  O  1  X    0.053058   0.020584   0.000000  -0.056411   0.024657
    8  O  1  Y   -0.020584   0.053058   0.000000   0.024657   0.056411
    9  O  1  Z    0.000000   0.000000  -0.228410   0.000000   0.000000
   10  O  1 XX    0.000000   0.000000  -0.060926   0.000000   0.000000
   11  O  1 YY    0.000000   0.000000  -0.060926   0.000000   0.000000
   12  O  1 ZZ    0.000000   0.000000   0.049928   0.000000   0.000000
   13  O  1 XY    0.000000   0.000000   0.000000   0.000000   0.000000
   14  O  1 XZ    0.048437   0.018792   0.000000  -0.143644   0.062785
   15  O  1 YZ   -0.018792   0.048437   0.000000   0.062785   0.143644
   16  S  2  S    0.000000   0.000000   0.027268   0.000000   0.000000
   17  S  2  S    0.000000   0.000000  -0.059841   0.000000   0.000000
   18  S  2  X   -0.283713  -0.110068   0.000000  -0.031765   0.013884
   19  S  2  Y    0.110068  -0.283713   0.000000   0.013884   0.031765
   20  S  2  Z    0.000000   0.000000   0.309820   0.000000   0.000000
   21  S  2  S    0.000000   0.000000   0.549726   0.000000   0.000000
   22  S  2  X    1.130800   0.438701   0.000000   0.137678  -0.060177
   23  S  2  Y   -0.438701   1.130800   0.000000  -0.060177  -0.137678
   24  S  2  Z    0.000000   0.000000  -1.222976   0.000000   0.000000
   25  S  2  S    0.000000   0.000000  -0.468262   0.000000   0.000000
   26  S  2  X   -1.136488  -0.440907   0.000000  -0.120776   0.052789
   27  S  2  Y    0.440907  -1.136488   0.000000   0.052789   0.120776
   28  S  2  Z    0.000000   0.000000   1.108487   0.000000   0.000000
   29  S  2 XX    0.000000   0.000000   0.132157   0.000000   0.000000
   30  S  2 YY    0.000000   0.000000   0.132157   0.000000   0.000000
   31  S  2 ZZ    0.000000   0.000000  -0.259037   0.000000   0.000000
   32  S  2 XY    0.000000   0.000000   0.000000   0.000000   0.000000
   33  S  2 XZ   -0.060828  -0.023599   0.000000   0.813766  -0.355687
   34  S  2 YZ    0.023599  -0.060828   0.000000  -0.355687  -0.813766

                     21         22         23
                    1.0295     1.0295     1.0426
                     A          A          A   
    1  O  1  S    0.000000   0.000000   0.021517
    2  O  1  S    0.000000   0.000000  -0.673778
    3  O  1  X    0.000000   0.000000   0.000000
    4  O  1  Y    0.000000   0.000000   0.000000
    5  O  1  Z    0.000000   0.000000   0.495353
    6  O  1  S    0.000000   0.000000   0.762989
    7  O  1  X    0.000000   0.000000   0.000000
    8  O  1  Y    0.000000   0.000000   0.000000
    9  O  1  Z    0.000000   0.000000  -1.176529
   10  O  1 XX    0.000002   0.076162  -0.245549
   11  O  1 YY   -0.000002  -0.076162  -0.245549
   12  O  1 ZZ    0.000000   0.000000  -0.236911
   13  O  1 XY   -0.087945   0.000002   0.000000
   14  O  1 XZ    0.000000   0.000000   0.000000
   15  O  1 YZ    0.000000   0.000000   0.000000
   16  S  2  S    0.000000   0.000000   0.009852
   17  S  2  S    0.000000   0.000000   0.023198
   18  S  2  X    0.000000   0.000000   0.000000
   19  S  2  Y    0.000000   0.000000   0.000000
   20  S  2  Z    0.000000   0.000000   0.084157
   21  S  2  S    0.000000   0.000000   0.278294
   22  S  2  X    0.000000   0.000000   0.000000
   23  S  2  Y    0.000000   0.000000   0.000000
   24  S  2  Z    0.000000   0.000000  -0.516257
   25  S  2  S    0.000000   0.000000   0.053369
   26  S  2  X    0.000000   0.000000   0.000000
   27  S  2  Y    0.000000   0.000000   0.000000
   28  S  2  Z    0.000000   0.000000   0.100239
   29  S  2 XX    0.000022   0.857920  -0.185740
   30  S  2 YY   -0.000022  -0.857920  -0.185740
   31  S  2 ZZ    0.000000   0.000000   0.590774
   32  S  2 XY   -0.990641   0.000025   0.000000
   33  S  2 XZ    0.000000   0.000000   0.000000
   34  S  2 YZ    0.000000   0.000000   0.000000

     ----------------------------------------------------------------
     PROPERTY VALUES FOR THE UHF   SELF-CONSISTENT FIELD WAVEFUNCTION
     ----------------------------------------------------------------

          -----------------
          ENERGY COMPONENTS
          -----------------

         WAVEFUNCTION NORMALIZATION =       1.0000000000

                ONE ELECTRON ENERGY =    -744.2277691713
                TWO ELECTRON ENERGY =     225.7039483051
           NUCLEAR REPULSION ENERGY =      46.1960207163
                                      ------------------
                       TOTAL ENERGY =    -472.3278001498

 ELECTRON-ELECTRON POTENTIAL ENERGY =     225.7039483051
  NUCLEUS-ELECTRON POTENTIAL ENERGY =   -1216.1630439305
   NUCLEUS-NUCLEUS POTENTIAL ENERGY =      46.1960207163
                                      ------------------
             TOTAL POTENTIAL ENERGY =    -944.2630749091
               TOTAL KINETIC ENERGY =     471.9352747592
                 VIRIAL RATIO (V/T) =       2.0008317356

  ...... PI ENERGY ANALYSIS ......

 ENERGY ANALYSIS:
            FOCK ENERGY=   -292.8198803427
          BARE H ENERGY=   -744.2277691713
     ELECTRONIC ENERGY =   -518.5238247570
         KINETIC ENERGY=    471.9352747592
          N-N REPULSION=     46.1960207163
           TOTAL ENERGY=   -472.3278040407
        SIGMA PART(1+2)=   -403.6820725590
               (K,V1,2)=    388.9822358610   -933.6305764572    140.9662680371
           PI PART(1+2)=   -114.8417521980
               (K,V1,2)=     82.9530388982   -282.5324674734     84.7376763771
  SIGMA SKELETON, ERROR=   -357.4860518427     -0.0000000000
             MIXED PART= 0.00000E+00 0.00000E+00 0.00000E+00 0.00000E+00
 ...... END OF PI ENERGY ANALYSIS ......

          ---------------------------------------
          MULLIKEN AND LOWDIN POPULATION ANALYSES
          ---------------------------------------

     ATOMIC MULLIKEN POPULATION IN EACH MOLECULAR ORBITAL
        ALPHA ORBITALS

                      1          2          3          4          5

                  1.000000   1.000000   1.000000   1.000000   1.000000

    1             0.000006   1.000020  -0.000517  -0.000012  -0.000012
    2             0.999994  -0.000020   1.000517   1.000012   1.000012

                      6          7          8          9         10

                  1.000000   1.000000   1.000000   1.000000   1.000000

    1            -0.000399   0.800131   0.269182   0.765814   0.765814
    2             1.000399   0.199869   0.730818   0.234186   0.234186

                     11         12         13

                  1.000000   1.000000   1.000000

    1             0.577380   0.209651   0.209651
    2             0.422620   0.790349   0.790349

     ATOMIC MULLIKEN POPULATION IN EACH MOLECULAR ORBITAL
         BETA ORBITALS

                      1          2          3          4          5

                  1.000000   1.000000   1.000000   1.000000   1.000000

    1             0.000006   1.000004  -0.000506  -0.000362  -0.000010
    2             0.999994  -0.000004   1.000506   1.000362   1.000010

                      6          7          8          9         10

                  1.000000   1.000000   1.000000   1.000000   1.000000

    1            -0.000010   0.743821   0.427298   0.447370   0.614282
    2             1.000010   0.256179   0.572702   0.552630   0.385718

                     11

                  1.000000

    1             0.614282
    2             0.385718

     ATOMIC SPIN POPULATION (ALPHA MINUS BETA)
       ATOM         MULL.POP.                    LOW.POP.
    1 O             0.750533                     0.792281
    2 S             1.249467                     1.207719


          ********* ALL ELECTRONS ********

               ----- POPULATIONS IN EACH AO -----
                             MULLIKEN      LOWDIN
              1  O  1  S      1.99566     1.97849
              2  O  1  S      0.95077     0.75786
              3  O  1  X      0.93257     0.90594
              4  O  1  Y      0.93257     0.90594
              5  O  1  Z      0.89892     0.85718
              6  O  1  S      0.91515     0.50253
              7  O  1  X      0.64600     0.67107
              8  O  1  Y      0.64600     0.67107
              9  O  1  Z      0.45739     0.58999
             10  O  1 XX      0.00537     0.18080
             11  O  1 YY      0.00537     0.18080
             12  O  1 ZZ      0.03480     0.21078
             13  O  1 XY      0.00000     0.00000
             14  O  1 XZ      0.01115     0.01823
             15  O  1 YZ      0.01115     0.01823
             16  S  2  S      1.99892     1.99862
             17  S  2  S      1.99900     1.98174
             18  S  2  X      1.99278     1.96649
             19  S  2  Y      1.99278     1.96649
             20  S  2  Z      1.99136     1.96003
             21  S  2  S      1.34560     0.60309
             22  S  2  X      0.95685     0.88756
             23  S  2  Y      0.95685     0.88756
             24  S  2  Z      0.75707     0.68471
             25  S  2  S      0.53312     0.51282
             26  S  2  X      0.41945     0.49983
             27  S  2  Y      0.41945     0.49983
             28  S  2  Z      0.04323     0.21245
             29  S  2 XX      0.00451     0.25251
             30  S  2 YY      0.00451     0.25251
             31  S  2 ZZ      0.05925     0.28308
             32  S  2 XY      0.00000     0.00000
             33  S  2 XZ      0.04120     0.05088
             34  S  2 YZ      0.04120     0.05088

          ----- MULLIKEN ATOMIC OVERLAP POPULATIONS -----
          (OFF-DIAGONAL ELEMENTS NEED TO BE MULTIPLIED BY 2)

             1           2

    1    8.1877953
    2    0.2550892  15.3020263

          TOTAL MULLIKEN AND LOWDIN ATOMIC POPULATIONS
       ATOM         MULL.POP.    CHARGE          LOW.POP.     CHARGE
    1 O             8.442885   -0.442885         8.448902   -0.448902
    2 S            15.557115    0.442885        15.551098    0.448902

          -------------------------------
          BOND ORDER AND VALENCE ANALYSIS     BOND ORDER THRESHOLD=0.050
          -------------------------------

                   BOND                       BOND                       BOND
  ATOM PAIR DIST  ORDER      ATOM PAIR DIST  ORDER      ATOM PAIR DIST  ORDER
    1   2  1.466  1.802

                       TOTAL       BONDED        FREE
      ATOM            VALENCE     VALENCE     VALENCE
    1 O                 2.156       1.802       0.354
    2 S                 2.723       1.802       0.921

          -----------------------------------------
          ATOMIC SPIN DENSITY AT THE NUCLEUS (A.U.)
          -----------------------------------------
                            SPIN DENS    ALPHA DENS     BETA DENS
    1  O            8.0     0.2701121     145.63837     145.36826
    2  S           16.0     0.2598178    1252.64960    1252.38978

          ---------------------
          ELECTROSTATIC MOMENTS
          ---------------------

 POINT   1           X           Y           Z (BOHR)    CHARGE
                 0.000000    0.000000   -0.009971       -0.00 (A.U.)
         DX          DY          DZ         /D/  (DEBYE)
     0.000000    0.000000    1.906123    1.906123
 ...... END OF PROPERTY EVALUATION ......
 STEP CPU TIME =     0.00 TOTAL CPU TIME =          0.2 (      0.0 MIN)
 TOTAL WALL CLOCK TIME=          0.2 SECONDS, CPU UTILIZATION IS    99.60%
  $VIB   
          IVIB=   0 IATOM=   0 ICOORD=   0 E=     -472.3278001498
  0.000000000E+00 0.000000000E+00 8.356920620E-07 0.000000000E+00 0.000000000E+00
 -8.357091204E-07
  0.000000000E+00 0.000000000E+00 1.906123376E+00
 ......END OF GEOMETRY SEARCH......
 STEP CPU TIME =     0.00 TOTAL CPU TIME =          0.2 (      0.0 MIN)
 TOTAL WALL CLOCK TIME=          0.2 SECONDS, CPU UTILIZATION IS    99.60%
               990205  WORDS OF DYNAMIC MEMORY USED
 EXECUTION OF GAMESS TERMINATED NORMALLY 19:56:10 20-OCT-2025    
----- accounting info -----
Files used on the parent node Macbooks-MacBook-Pro.local were:
-rw-r--r--  1 macbookpro  staff      241 Oct 20 19:56 /Users/macbookpro/local/gamess/scr/so_q0m3_uhf_631g_star.F05
-rw-r--r--  1 macbookpro  staff   720064 Oct 20 19:56 /Users/macbookpro/local/gamess/scr/so_q0m3_uhf_631g_star.F08
-rw-r--r--  1 macbookpro  staff  2094080 Oct 20 19:56 /Users/macbookpro/local/gamess/scr/so_q0m3_uhf_631g_star.F10
-rw-r--r--  1 macbookpro  staff   134679 Oct 20 19:56 /Users/macbookpro/local/gamess/scr/so_q0m3_uhf_631g_star.dat
Mon Oct 20 19:56:10 +07 2025
0.218u 0.052s 0:00.27 96.2%	0+0k 0+0io 46pf+0w
